/mnt/lustre/scratch/nvme/SLURM/9664119/usccqdma.zqEzyU6v5S
OMP_STACKSIZE=0m
GAUSS_PDEF=16
GAUSS_MDEF=65536MB
GAUSS_RDEF=SCF=Direct
 Entering Gaussian System, Link 0=g16.exe
 Initial command:
 /opt/cesga/2020/software/Core/g16/c1/l1.exe "/mnt/lustre/scratch/nvme/SLURM/9664119/usccqdma.zqEzyU6v5S/Gau-421061.inp" -scrdir="/mnt/lustre/scratch/nvme/SLURM/9664119/usccqdma.zqEzyU6v5S/"
 Default is to use a total of  16 processors:
                               16 via shared-memory
                                1 via Linda
 Entering Link 1 = /opt/cesga/2020/software/Core/g16/c1/l1.exe PID=    421087.
  
 Copyright (c) 1988-2019, Gaussian, Inc.  All Rights Reserved.
  
 This is part of the Gaussian(R) 16 program.  It is based on
 the Gaussian(R) 09 system (copyright 2009, Gaussian, Inc.),
 the Gaussian(R) 03 system (copyright 2003, Gaussian, Inc.),
 the Gaussian(R) 98 system (copyright 1998, Gaussian, Inc.),
 the Gaussian(R) 94 system (copyright 1995, Gaussian, Inc.),
 the Gaussian 92(TM) system (copyright 1992, Gaussian, Inc.),
 the Gaussian 90(TM) system (copyright 1990, Gaussian, Inc.),
 the Gaussian 88(TM) system (copyright 1988, Gaussian, Inc.),
 the Gaussian 86(TM) system (copyright 1986, Carnegie Mellon
 University), and the Gaussian 82(TM) system (copyright 1983,
 Carnegie Mellon University). Gaussian is a federally registered
 trademark of Gaussian, Inc.
  
 This software contains proprietary and confidential information,
 including trade secrets, belonging to Gaussian, Inc.
  
 This software is provided under written license and may be
 used, copied, transmitted, or stored only in accord with that
 written license.
  
 The following legend is applicable only to US Government
 contracts under FAR:
  
                    RESTRICTED RIGHTS LEGEND
  
 Use, reproduction and disclosure by the US Government is
 subject to restrictions as set forth in subparagraphs (a)
 and (c) of the Commercial Computer Software - Restricted
 Rights clause in FAR 52.227-19.
  
 Gaussian, Inc.
 340 Quinnipiac St., Bldg. 40, Wallingford CT 06492
  
  
 ---------------------------------------------------------------
 Warning -- This program may not be used in any manner that
 competes with the business of Gaussian, Inc. or will provide
 assistance to any competitor of Gaussian, Inc.  The licensee
 of this program is prohibited from giving any competitor of
 Gaussian, Inc. access to this program.  By using this program,
 the user acknowledges that Gaussian, Inc. is engaged in the
 business of creating and licensing software in the field of
 computational chemistry and represents and warrants to the
 licensee that it is not a competitor of Gaussian, Inc. and that
 it will not use this program in any manner prohibited above.
 ---------------------------------------------------------------
  

 Cite this work as:
 Gaussian 16, Revision C.01,
 M. J. Frisch, G. W. Trucks, H. B. Schlegel, G. E. Scuseria, 
 M. A. Robb, J. R. Cheeseman, G. Scalmani, V. Barone, 
 G. A. Petersson, H. Nakatsuji, X. Li, M. Caricato, A. V. Marenich, 
 J. Bloino, B. G. Janesko, R. Gomperts, B. Mennucci, H. P. Hratchian, 
 J. V. Ortiz, A. F. Izmaylov, J. L. Sonnenberg, D. Williams-Young, 
 F. Ding, F. Lipparini, F. Egidi, J. Goings, B. Peng, A. Petrone, 
 T. Henderson, D. Ranasinghe, V. G. Zakrzewski, J. Gao, N. Rega, 
 G. Zheng, W. Liang, M. Hada, M. Ehara, K. Toyota, R. Fukuda, 
 J. Hasegawa, M. Ishida, T. Nakajima, Y. Honda, O. Kitao, H. Nakai, 
 T. Vreven, K. Throssell, J. A. Montgomery, Jr., J. E. Peralta, 
 F. Ogliaro, M. J. Bearpark, J. J. Heyd, E. N. Brothers, K. N. Kudin, 
 V. N. Staroverov, T. A. Keith, R. Kobayashi, J. Normand, 
 K. Raghavachari, A. P. Rendell, J. C. Burant, S. S. Iyengar, 
 J. Tomasi, M. Cossi, J. M. Millam, M. Klene, C. Adamo, R. Cammi, 
 J. W. Ochterski, R. L. Martin, K. Morokuma, O. Farkas, 
 J. B. Foresman, and D. J. Fox, Gaussian, Inc., Wallingford CT, 2019.
 
 ******************************************
 Gaussian 16:  ES64L-G16RevC.01  3-Jul-2019
                 7-Dec-2024 
 ******************************************
 Default route: SCF=Direct
 ----------------------------------------------------
 # m06/genecp scf=tight int=ultrafine 5d freq=noraman
 ----------------------------------------------------
 1/10=4,30=1,38=1/1,3;
 2/12=2,17=6,18=5,40=1/2;
 3/5=7,8=1,11=2,16=1,17=8,25=1,30=1,71=2,74=-54,75=-5,140=1/1,2,3;
 4//1;
 5/5=2,32=2,38=5,98=1/2;
 8/6=4,10=90,11=11/1;
 11/6=1,8=1,9=11,15=111,16=1/1,2,10;
 10/6=1/2;
 6/7=2,8=2,9=2,10=2,28=1/1;
 7/8=1,10=1,25=1/1,2,3,16;
 1/10=4,30=1/3;
 99//99;
 ------
 OPT-TS
 ------
 Symbolic Z-matrix:
 Charge =  0 Multiplicity = 1
 C                     0.21651   1.02228   0.46696 
 C                    -0.39777   1.38934  -1.73168 
 C                     0.74808   2.1268   -1.97977 
 C                     1.67932   2.32331  -0.95561 
 C                     1.38993   1.75286   0.28527 
 C                    -0.14849   0.40392   1.76054 
 C                    -1.66958  -0.91364   2.92942 
 C                    -0.9702   -0.75068   4.11718 
 C                     0.18432   0.02168   4.11158 
 C                     0.59664   0.60616   2.92359 
 H                    -1.15383   1.21514  -2.49847 
 H                     2.08262   1.90714   1.10959 
 H                    -2.59559  -1.48561   2.86796 
 H                     1.48503   1.2316    2.90879 
 N                    -0.65583   0.84078  -0.54128 
 N                    -1.26487  -0.35774   1.77975 
 Ir                   -2.48283  -0.46165  -0.11308 
 O                    -5.11605  -2.01863  -0.35307 
 O                    -5.08196   0.80517  -1.27785 
 O                    -4.2696    1.10651   1.91206 
 B                    -3.76324   0.41437  -1.46414 
 B                    -4.08824  -1.54975   0.45968 
 B                    -3.40559   1.18366   0.8346 
 O                    -3.05014   2.50545   0.58582 
 O                    -4.30622  -1.96615   1.7739 
 C                    -5.47994  -2.78982   1.8097 
 C                    -6.21046  -2.36415   0.50429 
 C                    -4.66917   2.44226   2.26081 
 C                    -3.49158   3.29101   1.70418 
 C                    -5.6       1.23034  -2.54624 
 C                    -4.31207   1.69905  -3.27529 
 O                    -3.32956   0.79937  -2.73436 
 C                    -7.03446  -3.44928  -0.1569 
 H                    -7.84122  -3.79245   0.50698 
 H                    -7.49362  -3.05336  -1.07248 
 H                    -6.41873  -4.31171  -0.43661 
 C                    -7.04944  -1.10355   0.68946 
 H                    -7.34765  -0.72801  -0.29815 
 H                    -7.95551  -1.29685   1.28022 
 H                    -6.46113  -0.31135   1.1722 
 C                    -5.02432  -4.24248   1.79759 
 H                    -4.34406  -4.40857   2.64275 
 H                    -5.86976  -4.93713   1.89554 
 H                    -4.47733  -4.48281   0.87669 
 C                    -6.23967  -2.49652   3.089 
 H                    -7.21117  -3.01177   3.09834 
 H                    -5.66342  -2.84958   3.95451 
 H                    -6.40675  -1.42038   3.2122 
 C                    -6.24289   0.01328  -3.19969 
 H                    -7.00801  -0.38941  -2.52339 
 H                    -6.72324   0.26608  -4.15468 
 H                    -5.5049   -0.78108  -3.36874 
 C                    -6.64027   2.30775  -2.31949 
 H                    -7.03625   2.67844  -3.27595 
 H                    -7.47707   1.89227  -1.74122 
 H                    -6.23373   3.15823  -1.7593 
 C                    -4.34138   1.55569  -4.78273 
 H                    -5.14995   2.162    -5.21606 
 H                    -3.39235   1.90576  -5.20924 
 H                    -4.48266   0.51311  -5.08727 
 C                    -3.88498   3.10871  -2.8853 
 H                    -2.87675   3.29334  -3.28062 
 H                    -4.55645   3.87251  -3.30075 
 H                    -3.83961   3.21973  -1.79231 
 C                    -3.86826   4.67606   1.22024 
 H                    -2.97796   5.18832   0.83296 
 H                    -4.60965   4.63289   0.41367 
 H                    -4.27947   5.28189   2.04071 
 C                    -2.31106   3.3749    2.66552 
 H                    -1.4463    3.78187   2.12437 
 H                    -2.51951   4.02547   3.52562 
 H                    -2.03496   2.37781   3.03924 
 C                    -4.85804   2.51774   3.76254 
 H                    -5.08183   3.54638   4.08071 
 H                    -5.70081   1.8801    4.05918 
 H                    -3.96922   2.16797   4.30016 
 C                    -5.98801   2.71426   1.55147 
 H                    -6.72663   1.97108   1.87929 
 H                    -6.38239   3.71315   1.78217 
 H                    -5.87243   2.60742   0.46491 
 C                    -0.03153  -2.26063  -0.86546 
 C                     0.7468   -3.42057  -0.95884 
 C                    -1.42648  -2.29717  -0.76484 
 C                     0.10542  -4.66302  -1.00601 
 C                    -2.03558  -3.55921  -0.84404 
 C                    -1.28143  -4.72381  -0.95788 
 H                     0.6948   -5.57879  -1.05352 
 H                    -2.42288  -1.29872  -1.53206 
 H                    -3.12501  -3.62272  -0.83165 
 H                     0.92722   2.52515  -2.97627 
 H                     0.48657  -1.30096  -0.88122 
 H                    -1.33444  -1.22173   5.02649 
 H                    -1.7821   -5.69089  -1.00017 
 C                     2.21604  -3.32159  -0.98231 
 C                     2.99233  -4.19551  -1.75726 
 C                     2.87854  -2.3493   -0.21622 
 C                     4.37437  -4.11041  -1.76506 
 H                     2.49398  -4.93742  -2.37964 
 C                     4.2587   -2.26039  -0.21741 
 H                     2.29306  -1.68071   0.41445 
 C                     5.0211   -3.14184  -0.99016 
 H                     4.96278  -4.79226  -2.37445 
 H                     4.77082  -1.52125   0.39613 
 C                     6.48501  -3.03158  -0.93131 
 O                     7.08779  -2.22758  -0.23567 
 O                     7.11485  -3.915    -1.71193 
 C                     8.53715  -3.87708  -1.68156 
 H                     8.87192  -4.53343  -2.4868 
 H                     8.90766  -2.8578   -1.83626 
 H                     8.90737  -4.25213  -0.71911 
 H                     0.757     0.17697   5.02378 
 C                     2.90054   3.12085  -1.17247 
 C                     2.85733   4.24671  -2.00181 
 C                     4.1037    2.78869  -0.54285 
 C                     3.99483   5.0209   -2.18671 
 H                     1.91898   4.5342   -2.47447 
 C                     5.2557    3.5599   -0.71775 
 H                     4.15022   1.90718   0.09893 
 C                     5.18207   4.6827   -1.55123 
 H                     3.95492   5.8974   -2.83115 
 H                     6.0782    5.27947  -1.71618 
 C                     6.52406   3.22027  -0.03994 
 C                     7.32356   4.23611   0.49483 
 C                     6.95007   1.89648   0.06976 
 C                     8.51861   3.91147   1.12265 
 H                     6.98991   5.27175   0.44426 
 C                     8.16116   1.57016   0.69381 
 H                     6.35297   1.09896  -0.37909 
 C                     8.95031   2.59593   1.2297 
 H                     9.13447   4.70236   1.5488 
 H                     9.88794   2.34544   1.71172 
 N                     8.51178   0.22023   0.73952 
 C                     9.70876  -0.3291    1.18016 
 H                     7.83378  -0.42537   0.34482 
 O                     10.63081   0.31443   1.65621 
 C                     10.86238  -2.46603   1.48104 
 H                     11.30604  -3.06628   0.67393 
 H                     11.61855  -1.76647   1.8485 
 H                     10.57989  -3.13931   2.30292 
 N                     9.7451   -1.69004   1.0111 
 H                     8.91285  -2.1594    0.67099 
 

 GradGradGradGradGradGradGradGradGradGradGradGradGradGradGradGradGradGrad
 Berny optimization.
 Initialization pass.
 Trust Radius=3.00D-01 FncErr=1.00D-07 GrdErr=1.00D-07 EigMax=2.50D+02 EigMin=1.00D-04
 Number of steps in this run=      2 maximum allowed number of steps=      2.
 GradGradGradGradGradGradGradGradGradGradGradGradGradGradGradGradGradGrad

 Stoichiometry    C56H68B3IrN4O9
 Framework group  C1[X(C56H68B3IrN4O9)]
 Deg. of freedom   417
 Full point group                 C1      NOp   1
 Largest Abelian subgroup         C1      NOp   1
 Largest concise Abelian subgroup C1      NOp   1
                         Standard orientation:                         
 ---------------------------------------------------------------------
 Center     Atomic      Atomic             Coordinates (Angstroms)
 Number     Number       Type             X           Y           Z
 ---------------------------------------------------------------------
      1          6           0        0.216510    1.022281    0.466960
      2          6           0       -0.397770    1.389341   -1.731680
      3          6           0        0.748080    2.126801   -1.979770
      4          6           0        1.679320    2.323310   -0.955610
      5          6           0        1.389930    1.752860    0.285270
      6          6           0       -0.148490    0.403921    1.760540
      7          6           0       -1.669581   -0.913639    2.929420
      8          6           0       -0.970201   -0.750679    4.117180
      9          6           0        0.184320    0.021681    4.111580
     10          6           0        0.596640    0.606161    2.923590
     11          1           0       -1.153830    1.215141   -2.498470
     12          1           0        2.082620    1.907140    1.109590
     13          1           0       -2.595591   -1.485609    2.867960
     14          1           0        1.485030    1.231600    2.908790
     15          7           0       -0.655830    0.840781   -0.541280
     16          7           0       -1.264870   -0.357739    1.779750
     17         77           0       -2.482830   -0.461649   -0.113080
     18          8           0       -5.116051   -2.018629   -0.353070
     19          8           0       -5.081960    0.805171   -1.277850
     20          8           0       -4.269600    1.106511    1.912060
     21          5           0       -3.763240    0.414371   -1.464140
     22          5           0       -4.088241   -1.549749    0.459680
     23          5           0       -3.405590    1.183661    0.834600
     24          8           0       -3.050140    2.505451    0.585820
     25          8           0       -4.306221   -1.966149    1.773900
     26          6           0       -5.479941   -2.789819    1.809700
     27          6           0       -6.210461   -2.364149    0.504290
     28          6           0       -4.669170    2.442261    2.260810
     29          6           0       -3.491580    3.291011    1.704180
     30          6           0       -5.600000    1.230341   -2.546240
     31          6           0       -4.312070    1.699051   -3.275290
     32          8           0       -3.329560    0.799371   -2.734360
     33          6           0       -7.034461   -3.449279   -0.156900
     34          1           0       -7.841221   -3.792449    0.506980
     35          1           0       -7.493621   -3.053359   -1.072480
     36          1           0       -6.418731   -4.311709   -0.436610
     37          6           0       -7.049441   -1.103549    0.689460
     38          1           0       -7.347651   -0.728009   -0.298150
     39          1           0       -7.955511   -1.296849    1.280220
     40          1           0       -6.461130   -0.311349    1.172200
     41          6           0       -5.024321   -4.242479    1.797590
     42          1           0       -4.344061   -4.408569    2.642750
     43          1           0       -5.869761   -4.937129    1.895540
     44          1           0       -4.477331   -4.482809    0.876690
     45          6           0       -6.239671   -2.496519    3.089000
     46          1           0       -7.211171   -3.011769    3.098340
     47          1           0       -5.663421   -2.849579    3.954510
     48          1           0       -6.406751   -1.420379    3.212200
     49          6           0       -6.242890    0.013281   -3.199690
     50          1           0       -7.008010   -0.389409   -2.523390
     51          1           0       -6.723240    0.266081   -4.154680
     52          1           0       -5.504901   -0.781079   -3.368740
     53          6           0       -6.640270    2.307751   -2.319490
     54          1           0       -7.036250    2.678441   -3.275950
     55          1           0       -7.477070    1.892271   -1.741220
     56          1           0       -6.233730    3.158231   -1.759300
     57          6           0       -4.341380    1.555691   -4.782730
     58          1           0       -5.149950    2.162001   -5.216060
     59          1           0       -3.392350    1.905761   -5.209240
     60          1           0       -4.482660    0.513111   -5.087270
     61          6           0       -3.884980    3.108711   -2.885300
     62          1           0       -2.876750    3.293341   -3.280620
     63          1           0       -4.556450    3.872511   -3.300750
     64          1           0       -3.839610    3.219731   -1.792310
     65          6           0       -3.868260    4.676061    1.220240
     66          1           0       -2.977960    5.188321    0.832960
     67          1           0       -4.609650    4.632891    0.413670
     68          1           0       -4.279470    5.281891    2.040710
     69          6           0       -2.311060    3.374901    2.665520
     70          1           0       -1.446300    3.781871    2.124370
     71          1           0       -2.519510    4.025471    3.525620
     72          1           0       -2.034960    2.377811    3.039240
     73          6           0       -4.858040    2.517741    3.762540
     74          1           0       -5.081830    3.546381    4.080710
     75          1           0       -5.700810    1.880101    4.059180
     76          1           0       -3.969220    2.167971    4.300160
     77          6           0       -5.988010    2.714261    1.551470
     78          1           0       -6.726630    1.971081    1.879290
     79          1           0       -6.382390    3.713151    1.782170
     80          1           0       -5.872430    2.607421    0.464910
     81          6           0       -0.031531   -2.260629   -0.865460
     82          6           0        0.746799   -3.420569   -0.958840
     83          6           0       -1.426481   -2.297169   -0.764840
     84          6           0        0.105419   -4.663019   -1.006010
     85          6           0       -2.035581   -3.559209   -0.844040
     86          6           0       -1.281431   -4.723809   -0.957880
     87          1           0        0.694799   -5.578789   -1.053520
     88          1           0       -2.422881   -1.298719   -1.532060
     89          1           0       -3.125011   -3.622719   -0.831650
     90          1           0        0.927220    2.525150   -2.976270
     91          1           0        0.486569   -1.300959   -0.881220
     92          1           0       -1.334441   -1.221729    5.026490
     93          1           0       -1.782101   -5.690889   -1.000170
     94          6           0        2.216039   -3.321590   -0.982310
     95          6           0        2.992329   -4.195510   -1.757260
     96          6           0        2.878539   -2.349300   -0.216220
     97          6           0        4.374369   -4.110410   -1.765060
     98          1           0        2.493979   -4.937420   -2.379640
     99          6           0        4.258699   -2.260390   -0.217410
    100          1           0        2.293059   -1.680710    0.414450
    101          6           0        5.021099   -3.141840   -0.990160
    102          1           0        4.962779   -4.792260   -2.374450
    103          1           0        4.770819   -1.521250    0.396130
    104          6           0        6.485009   -3.031580   -0.931310
    105          8           0        7.087789   -2.227580   -0.235670
    106          8           0        7.114849   -3.915000   -1.711930
    107          6           0        8.537149   -3.877080   -1.681560
    108          1           0        8.871919   -4.533430   -2.486800
    109          1           0        8.907659   -2.857800   -1.836260
    110          1           0        8.907369   -4.252130   -0.719110
    111          1           0        0.757000    0.176971    5.023780
    112          6           0        2.900540    3.120850   -1.172470
    113          6           0        2.857330    4.246710   -2.001810
    114          6           0        4.103700    2.788690   -0.542850
    115          6           0        3.994830    5.020900   -2.186710
    116          1           0        1.918980    4.534200   -2.474470
    117          6           0        5.255700    3.559900   -0.717750
    118          1           0        4.150220    1.907180    0.098930
    119          6           0        5.182070    4.682700   -1.551230
    120          1           0        3.954920    5.897400   -2.831150
    121          1           0        6.078200    5.279470   -1.716180
    122          6           0        6.524060    3.220270   -0.039940
    123          6           0        7.323560    4.236110    0.494830
    124          6           0        6.950070    1.896480    0.069760
    125          6           0        8.518610    3.911470    1.122650
    126          1           0        6.989910    5.271750    0.444260
    127          6           0        8.161160    1.570160    0.693810
    128          1           0        6.352970    1.098960   -0.379090
    129          6           0        8.950310    2.595930    1.229700
    130          1           0        9.134470    4.702360    1.548800
    131          1           0        9.887940    2.345440    1.711720
    132          7           0        8.511780    0.220230    0.739520
    133          6           0        9.708760   -0.329100    1.180160
    134          1           0        7.833780   -0.425370    0.344820
    135          8           0       10.630810    0.314429    1.656210
    136          6           0       10.862379   -2.466031    1.481040
    137          1           0       11.306039   -3.066281    0.673930
    138          1           0       11.618549   -1.766471    1.848500
    139          1           0       10.579889   -3.139311    2.302920
    140          7           0        9.745099   -1.690040    1.011100
    141          1           0        8.912849   -2.159400    0.670990
 ---------------------------------------------------------------------
 Rotational constants (GHZ):           0.0472511           0.0158229           0.0141563
 General basis read from cards:  (5D, 7F)
 ======================================================================================================
                                       Pseudopotential Parameters
 ======================================================================================================
  Center     Atomic      Valence      Angular      Power
  Number     Number     Electrons     Momentum     of R      Exponent        Coefficient   SO-Coeffient
 ======================================================================================================
    1          6
                                   No pseudopotential on this center.
    2          6
                                   No pseudopotential on this center.
    3          6
                                   No pseudopotential on this center.
    4          6
                                   No pseudopotential on this center.
    5          6
                                   No pseudopotential on this center.
    6          6
                                   No pseudopotential on this center.
    7          6
                                   No pseudopotential on this center.
    8          6
                                   No pseudopotential on this center.
    9          6
                                   No pseudopotential on this center.
   10          6
                                   No pseudopotential on this center.
   11          1
                                   No pseudopotential on this center.
   12          1
                                   No pseudopotential on this center.
   13          1
                                   No pseudopotential on this center.
   14          1
                                   No pseudopotential on this center.
   15          7
                                   No pseudopotential on this center.
   16          7
                                   No pseudopotential on this center.
   17         77           17
                                      G and up 
                                                     1      823.5880147       -0.15780140    0.00000000
                                                     2      364.6613336    -1517.52704460    0.00000000
                                                     2       55.7082801     -316.53065290    0.00000000
                                                     2       12.0464544      -91.88809410    0.00000000
                                                     2        3.5120610       -9.22417730    0.00000000
                                      S - G
                                                     0      188.0490770        3.15780140    0.00000000
                                                     1      340.4194712       26.83225770    0.00000000
                                                     2      128.2373673      800.42500070    0.00000000
                                                     2       33.8644961      369.40506830    0.00000000
                                                     2        4.7560005      242.41718990    0.00000000
                                                     2        3.9649974     -118.21732820    0.00000000
                                      P - G
                                                     0      289.7291139        2.15780140    0.00000000
                                                     1       87.4633789       61.96786100    0.00000000
                                                     2       30.4363766      269.05819860    0.00000000
                                                     2        4.0553412      231.16547930    0.00000000
                                                     2        3.5525341     -133.69526670    0.00000000
                                      D - G
                                                     0      136.4017106        3.15780140    0.00000000
                                                     1       95.0776925       45.93498030    0.00000000
                                                     2       49.2258410      359.03446680    0.00000000
                                                     2       15.0874145      176.47401190    0.00000000
                                                     2        4.0405764       54.51552860    0.00000000
                                      F - G
                                                     0      127.3507908        3.95461970    0.00000000
                                                     1       66.2364374       52.97736550    0.00000000
                                                     2       34.4299229      274.86433830    0.00000000
                                                     2       10.1995721      137.20473380    0.00000000
                                                     2        2.5409702       14.86333050    0.00000000
   18          8
                                   No pseudopotential on this center.
   19          8
                                   No pseudopotential on this center.
   20          8
                                   No pseudopotential on this center.
   21          5
                                   No pseudopotential on this center.
   22          5
                                   No pseudopotential on this center.
   23          5
                                   No pseudopotential on this center.
   24          8
                                   No pseudopotential on this center.
   25          8
                                   No pseudopotential on this center.
   26          6
                                   No pseudopotential on this center.
   27          6
                                   No pseudopotential on this center.
   28          6
                                   No pseudopotential on this center.
   29          6
                                   No pseudopotential on this center.
   30          6
                                   No pseudopotential on this center.
   31          6
                                   No pseudopotential on this center.
   32          8
                                   No pseudopotential on this center.
   33          6
                                   No pseudopotential on this center.
   34          1
                                   No pseudopotential on this center.
   35          1
                                   No pseudopotential on this center.
   36          1
                                   No pseudopotential on this center.
   37          6
                                   No pseudopotential on this center.
   38          1
                                   No pseudopotential on this center.
   39          1
                                   No pseudopotential on this center.
   40          1
                                   No pseudopotential on this center.
   41          6
                                   No pseudopotential on this center.
   42          1
                                   No pseudopotential on this center.
   43          1
                                   No pseudopotential on this center.
   44          1
                                   No pseudopotential on this center.
   45          6
                                   No pseudopotential on this center.
   46          1
                                   No pseudopotential on this center.
   47          1
                                   No pseudopotential on this center.
   48          1
                                   No pseudopotential on this center.
   49          6
                                   No pseudopotential on this center.
   50          1
                                   No pseudopotential on this center.
   51          1
                                   No pseudopotential on this center.
   52          1
                                   No pseudopotential on this center.
   53          6
                                   No pseudopotential on this center.
   54          1
                                   No pseudopotential on this center.
   55          1
                                   No pseudopotential on this center.
   56          1
                                   No pseudopotential on this center.
   57          6
                                   No pseudopotential on this center.
   58          1
                                   No pseudopotential on this center.
   59          1
                                   No pseudopotential on this center.
   60          1
                                   No pseudopotential on this center.
   61          6
                                   No pseudopotential on this center.
   62          1
                                   No pseudopotential on this center.
   63          1
                                   No pseudopotential on this center.
   64          1
                                   No pseudopotential on this center.
   65          6
                                   No pseudopotential on this center.
   66          1
                                   No pseudopotential on this center.
   67          1
                                   No pseudopotential on this center.
   68          1
                                   No pseudopotential on this center.
   69          6
                                   No pseudopotential on this center.
   70          1
                                   No pseudopotential on this center.
   71          1
                                   No pseudopotential on this center.
   72          1
                                   No pseudopotential on this center.
   73          6
                                   No pseudopotential on this center.
   74          1
                                   No pseudopotential on this center.
   75          1
                                   No pseudopotential on this center.
   76          1
                                   No pseudopotential on this center.
   77          6
                                   No pseudopotential on this center.
   78          1
                                   No pseudopotential on this center.
   79          1
                                   No pseudopotential on this center.
   80          1
                                   No pseudopotential on this center.
   81          6
                                   No pseudopotential on this center.
   82          6
                                   No pseudopotential on this center.
   83          6
                                   No pseudopotential on this center.
   84          6
                                   No pseudopotential on this center.
   85          6
                                   No pseudopotential on this center.
   86          6
                                   No pseudopotential on this center.
   87          1
                                   No pseudopotential on this center.
   88          1
                                   No pseudopotential on this center.
   89          1
                                   No pseudopotential on this center.
   90          1
                                   No pseudopotential on this center.
   91          1
                                   No pseudopotential on this center.
   92          1
                                   No pseudopotential on this center.
   93          1
                                   No pseudopotential on this center.
   94          6
                                   No pseudopotential on this center.
   95          6
                                   No pseudopotential on this center.
   96          6
                                   No pseudopotential on this center.
   97          6
                                   No pseudopotential on this center.
   98          1
                                   No pseudopotential on this center.
   99          6
                                   No pseudopotential on this center.
  100          1
                                   No pseudopotential on this center.
  101          6
                                   No pseudopotential on this center.
  102          1
                                   No pseudopotential on this center.
  103          1
                                   No pseudopotential on this center.
  104          6
                                   No pseudopotential on this center.
  105          8
                                   No pseudopotential on this center.
  106          8
                                   No pseudopotential on this center.
  107          6
                                   No pseudopotential on this center.
  108          1
                                   No pseudopotential on this center.
  109          1
                                   No pseudopotential on this center.
  110          1
                                   No pseudopotential on this center.
  111          1
                                   No pseudopotential on this center.
  112          6
                                   No pseudopotential on this center.
  113          6
                                   No pseudopotential on this center.
  114          6
                                   No pseudopotential on this center.
  115          6
                                   No pseudopotential on this center.
  116          1
                                   No pseudopotential on this center.
  117          6
                                   No pseudopotential on this center.
  118          1
                                   No pseudopotential on this center.
  119          6
                                   No pseudopotential on this center.
  120          1
                                   No pseudopotential on this center.
  121          1
                                   No pseudopotential on this center.
  122          6
                                   No pseudopotential on this center.
  123          6
                                   No pseudopotential on this center.
  124          6
                                   No pseudopotential on this center.
  125          6
                                   No pseudopotential on this center.
  126          1
                                   No pseudopotential on this center.
  127          6
                                   No pseudopotential on this center.
  128          1
                                   No pseudopotential on this center.
  129          6
                                   No pseudopotential on this center.
  130          1
                                   No pseudopotential on this center.
  131          1
                                   No pseudopotential on this center.
  132          7
                                   No pseudopotential on this center.
  133          6
                                   No pseudopotential on this center.
  134          1
                                   No pseudopotential on this center.
  135          8
                                   No pseudopotential on this center.
  136          6
                                   No pseudopotential on this center.
  137          1
                                   No pseudopotential on this center.
  138          1
                                   No pseudopotential on this center.
  139          1
                                   No pseudopotential on this center.
  140          7
                                   No pseudopotential on this center.
  141          1
                                   No pseudopotential on this center.
 ======================================================================================================
 There are  1240 symmetry adapted cartesian basis functions of A   symmetry.
 There are  1166 symmetry adapted basis functions of A   symmetry.
  1166 basis functions,  2331 primitive gaussians,  1240 cartesian basis functions
   268 alpha electrons      268 beta electrons
       nuclear repulsion energy     12789.2502296236 Hartrees.
 NAtoms=  141 NActive=  141 NUniq=  141 SFac= 1.00D+00 NAtFMM=   60 NAOKFM=T Big=T
 Integral buffers will be    131072 words long.
 Raffenetti 2 integral format.
 Two-electron integral symmetry is turned on.
 One-electron integrals computed using PRISM.
   1 Symmetry operations used in ECPInt.
 ECPInt:  NShTT=   93528 NPrTT=  585251 LenC2=   53966 LenP2D=  161904.
 LDataN:  DoStor=T MaxTD1= 6 Len=  172
 NBasis=  1166 RedAO= T EigKep=  3.95D-04  NBF=  1166
 NBsUse=  1166 1.00D-06 EigRej= -1.00D+00 NBFU=  1166
 Defaulting to unpruned grid for atomic number  77.
 ExpMin= 2.90D-02 ExpMax= 5.48D+03 ExpMxC= 8.25D+02 IAcc=3 IRadAn=         5 AccDes= 0.00D+00
 Harris functional with IExCor= 1009 and IRadAn=       5 diagonalized for initial guess.
 HarFok:  IExCor= 1009 AccDes= 0.00D+00 IRadAn=         5 IDoV= 1 UseB2=F ITyADJ=14
 ICtDFT=  3500011 ScaDFX=  1.000000  1.000000  1.000000  1.000000
 Defaulting to unpruned grid for atomic number  77.
 FoFCou: FMM=F IPFlag=           0 FMFlag=      100000 FMFlg1=        2001
         NFxFlg=           0 DoJE=T BraDBF=F KetDBF=T FulRan=T
         wScrn=  0.000000 ICntrl=       500 IOpCl=  0 I1Cent=   200000004 NGrid=           0
         NMat0=    1 NMatS0=      1 NMatT0=    0 NMatD0=    1 NMtDS0=    0 NMtDT0=    0
 Petite list used in FoFCou.
 Requested convergence on RMS density matrix=1.00D-08 within 128 cycles.
 Requested convergence on MAX density matrix=1.00D-06.
 Requested convergence on             energy=1.00D-06.
 No special actions if energy rises.
 Defaulting to unpruned grid for atomic number  77.
 Defaulting to unpruned grid for atomic number  77.
 Defaulting to unpruned grid for atomic number  77.
 Defaulting to unpruned grid for atomic number  77.
 Defaulting to unpruned grid for atomic number  77.
 Defaulting to unpruned grid for atomic number  77.
 Defaulting to unpruned grid for atomic number  77.
 Defaulting to unpruned grid for atomic number  77.
 Defaulting to unpruned grid for atomic number  77.
 Defaulting to unpruned grid for atomic number  77.
 Defaulting to unpruned grid for atomic number  77.
 Defaulting to unpruned grid for atomic number  77.
 Defaulting to unpruned grid for atomic number  77.
 Defaulting to unpruned grid for atomic number  77.
 Defaulting to unpruned grid for atomic number  77.
 Defaulting to unpruned grid for atomic number  77.
 SCF Done:  E(RM06) =  -3248.41910396     A.U. after   15 cycles
            NFock= 15  Conv=0.62D-08     -V/T= 2.0290
 DoSCS=F DFT=T ScalE2(SS,OS)=  1.000000  1.000000
 Range of M.O.s used for correlation:     1  1166
 NBasis=  1166 NAE=   268 NBE=   268 NFC=     0 NFV=     0
 NROrb=   1166 NOA=   268 NOB=   268 NVA=   898 NVB=   898

 **** Warning!!: The largest alpha MO coefficient is  0.11137560D+02

   1 Symmetry operations used in ECPInt.
 ECPInt:  NShTT=   93528 NPrTT=  585251 LenC2=   53966 LenP2D=  161904.
 LDataN:  DoStor=T MaxTD1= 7 Len=  274
 Number of processors reduced to   5 by ecpmxn.
 Symmetrizing basis deriv contribution to polar:
 IMax=3 JMax=2 DiffMx= 0.00D+00
 G2DrvN: will do   142 centers at a time, making    1 passes.
 Calling FoFCou, ICntrl=  3107 FMM=T I1Cent=   0 AccDes= 0.00D+00.
 Defaulting to unpruned grid for atomic number  77.
 Defaulting to unpruned grid for atomic number  77.
 Defaulting to unpruned grid for atomic number  77.
 Defaulting to unpruned grid for atomic number  77.
 Defaulting to unpruned grid for atomic number  77.
 Defaulting to unpruned grid for atomic number  77.
 Defaulting to unpruned grid for atomic number  77.
 Defaulting to unpruned grid for atomic number  77.
 Defaulting to unpruned grid for atomic number  77.
 Defaulting to unpruned grid for atomic number  77.
 Defaulting to unpruned grid for atomic number  77.
 Defaulting to unpruned grid for atomic number  77.
 Defaulting to unpruned grid for atomic number  77.
 Defaulting to unpruned grid for atomic number  77.
 Defaulting to unpruned grid for atomic number  77.
 Defaulting to unpruned grid for atomic number  77.
 End of G2Drv F.D. properties file   721 does not exist.
 End of G2Drv F.D. properties file   722 does not exist.
 End of G2Drv F.D. properties file   788 does not exist.
          IDoAtm=11111111111111111111111111111111111111111111111111
          IDoAtm=11111111111111111111111111111111111111111111111111
          IDoAtm=11111111111111111111111111111111111111111
          Differentiating once with respect to electric field.
                with respect to dipole field.
          Differentiating once with respect to nuclear coordinates.
 Defaulting to unpruned grid for atomic number  77.
 CalDSu exits because no D1Ps are significant.
 Defaulting to unpruned grid for atomic number  77.
 Defaulting to unpruned grid for atomic number  77.
 Defaulting to unpruned grid for atomic number  77.
 Defaulting to unpruned grid for atomic number  77.
 Defaulting to unpruned grid for atomic number  77.
 Defaulting to unpruned grid for atomic number  77.
 Defaulting to unpruned grid for atomic number  77.
 Defaulting to unpruned grid for atomic number  77.
 Defaulting to unpruned grid for atomic number  77.
 Defaulting to unpruned grid for atomic number  77.
 Defaulting to unpruned grid for atomic number  77.
 Defaulting to unpruned grid for atomic number  77.
 Defaulting to unpruned grid for atomic number  77.
 Defaulting to unpruned grid for atomic number  77.
 Defaulting to unpruned grid for atomic number  77.
 Defaulting to unpruned grid for atomic number  77.
          There are   426 degrees of freedom in the 1st order CPHF.  IDoFFX=6 NUNeed=     3.
    423 vectors produced by pass  0 Test12= 2.41D-13 1.00D-09 XBig12= 9.41D+02 1.08D+01.
 AX will form    72 AO Fock derivatives at one time.
    423 vectors produced by pass  1 Test12= 2.41D-13 1.00D-09 XBig12= 1.18D+02 1.07D+00.
    423 vectors produced by pass  2 Test12= 2.41D-13 1.00D-09 XBig12= 1.36D+00 7.82D-02.
    423 vectors produced by pass  3 Test12= 2.41D-13 1.00D-09 XBig12= 8.97D-03 6.12D-03.
    423 vectors produced by pass  4 Test12= 2.41D-13 1.00D-09 XBig12= 3.02D-05 4.67D-04.
    391 vectors produced by pass  5 Test12= 2.41D-13 1.00D-09 XBig12= 6.64D-08 1.64D-05.
    122 vectors produced by pass  6 Test12= 2.41D-13 1.00D-09 XBig12= 1.04D-10 4.69D-07.
      3 vectors produced by pass  7 Test12= 2.41D-13 1.00D-09 XBig12= 1.48D-13 2.13D-08.
 InvSVY:  IOpt=1 It=  1 EMax= 1.42D-14
 Solved reduced A of dimension  2631 with   426 vectors.
 Isotropic polarizability for W=    0.000000      770.51 Bohr**3.
 End of Minotr F.D. properties file   721 does not exist.
 End of Minotr F.D. properties file   722 does not exist.
 End of Minotr F.D. properties file   788 does not exist.
 Hyperfine terms turned off by default for NAtoms > 100.

 **********************************************************************

            Population analysis using the SCF Density.

 **********************************************************************

 Orbital symmetries:
       Occupied  (A) (A) (A) (A) (A) (A) (A) (A) (A) (A) (A) (A)
                 (A) (A) (A) (A) (A) (A) (A) (A) (A) (A) (A) (A)
                 (A) (A) (A) (A) (A) (A) (A) (A) (A) (A) (A) (A)
                 (A) (A) (A) (A) (A) (A) (A) (A) (A) (A) (A) (A)
                 (A) (A) (A) (A) (A) (A) (A) (A) (A) (A) (A) (A)
                 (A) (A) (A) (A) (A) (A) (A) (A) (A) (A) (A) (A)
                 (A) (A) (A) (A) (A) (A) (A) (A) (A) (A) (A) (A)
                 (A) (A) (A) (A) (A) (A) (A) (A) (A) (A) (A) (A)
                 (A) (A) (A) (A) (A) (A) (A) (A) (A) (A) (A) (A)
                 (A) (A) (A) (A) (A) (A) (A) (A) (A) (A) (A) (A)
                 (A) (A) (A) (A) (A) (A) (A) (A) (A) (A) (A) (A)
                 (A) (A) (A) (A) (A) (A) (A) (A) (A) (A) (A) (A)
                 (A) (A) (A) (A) (A) (A) (A) (A) (A) (A) (A) (A)
                 (A) (A) (A) (A) (A) (A) (A) (A) (A) (A) (A) (A)
                 (A) (A) (A) (A) (A) (A) (A) (A) (A) (A) (A) (A)
                 (A) (A) (A) (A) (A) (A) (A) (A) (A) (A) (A) (A)
                 (A) (A) (A) (A) (A) (A) (A) (A) (A) (A) (A) (A)
                 (A) (A) (A) (A) (A) (A) (A) (A) (A) (A) (A) (A)
                 (A) (A) (A) (A) (A) (A) (A) (A) (A) (A) (A) (A)
                 (A) (A) (A) (A) (A) (A) (A) (A) (A) (A) (A) (A)
                 (A) (A) (A) (A) (A) (A) (A) (A) (A) (A) (A) (A)
                 (A) (A) (A) (A) (A) (A) (A) (A) (A) (A) (A) (A)
                 (A) (A) (A) (A)
       Virtual   (A) (A) (A) (A) (A) (A) (A) (A) (A) (A) (A) (A)
                 (A) (A) (A) (A) (A) (A) (A) (A) (A) (A) (A) (A)
                 (A) (A) (A) (A) (A) (A) (A) (A) (A) (A) (A) (A)
                 (A) (A) (A) (A) (A) (A) (A) (A) (A) (A) (A) (A)
                 (A) (A) (A) (A) (A) (A) (A) (A) (A) (A) (A) (A)
                 (A) (A) (A) (A) (A) (A) (A) (A) (A) (A) (A) (A)
                 (A) (A) (A) (A) (A) (A) (A) (A) (A) (A) (A) (A)
                 (A) (A) (A) (A) (A) (A) (A) (A) (A) (A) (A) (A)
                 (A) (A) (A) (A) (A) (A) (A) (A) (A) (A) (A) (A)
                 (A) (A) (A) (A) (A) (A) (A) (A) (A) (A) (A) (A)
                 (A) (A) (A) (A) (A) (A) (A) (A) (A) (A) (A) (A)
                 (A) (A) (A) (A) (A) (A) (A) (A) (A) (A) (A) (A)
                 (A) (A) (A) (A) (A) (A) (A) (A) (A) (A) (A) (A)
                 (A) (A) (A) (A) (A) (A) (A) (A) (A) (A) (A) (A)
                 (A) (A) (A) (A) (A) (A) (A) (A) (A) (A) (A) (A)
                 (A) (A) (A) (A) (A) (A) (A) (A) (A) (A) (A) (A)
                 (A) (A) (A) (A) (A) (A) (A) (A) (A) (A) (A) (A)
                 (A) (A) (A) (A) (A) (A) (A) (A) (A) (A) (A) (A)
                 (A) (A) (A) (A) (A) (A) (A) (A) (A) (A) (A) (A)
                 (A) (A) (A) (A) (A) (A) (A) (A) (A) (A) (A) (A)
                 (A) (A) (A) (A) (A) (A) (A) (A) (A) (A) (A) (A)
                 (A) (A) (A) (A) (A) (A) (A) (A) (A) (A) (A) (A)
                 (A) (A) (A) (A) (A) (A) (A) (A) (A) (A) (A) (A)
                 (A) (A) (A) (A) (A) (A) (A) (A) (A) (A) (A) (A)
                 (A) (A) (A) (A) (A) (A) (A) (A) (A) (A) (A) (A)
                 (A) (A) (A) (A) (A) (A) (A) (A) (A) (A) (A) (A)
                 (A) (A) (A) (A) (A) (A) (A) (A) (A) (A) (A) (A)
                 (A) (A) (A) (A) (A) (A) (A) (A) (A) (A) (A) (A)
                 (A) (A) (A) (A) (A) (A) (A) (A) (A) (A) (A) (A)
                 (A) (A) (A) (A) (A) (A) (A) (A) (A) (A) (A) (A)
                 (A) (A) (A) (A) (A) (A) (A) (A) (A) (A) (A) (A)
                 (A) (A) (A) (A) (A) (A) (A) (A) (A) (A) (A) (A)
                 (A) (A) (A) (A) (A) (A) (A) (A) (A) (A) (A) (A)
                 (A) (A) (A) (A) (A) (A) (A) (A) (A) (A) (A) (A)
                 (A) (A) (A) (A) (A) (A) (A) (A) (A) (A) (A) (A)
                 (A) (A) (A) (A) (A) (A) (A) (A) (A) (A) (A) (A)
                 (A) (A) (A) (A) (A) (A) (A) (A) (A) (A) (A) (A)
                 (A) (A) (A) (A) (A) (A) (A) (A) (A) (A) (A) (A)
                 (A) (A) (A) (A) (A) (A) (A) (A) (A) (A) (A) (A)
                 (A) (A) (A) (A) (A) (A) (A) (A) (A) (A) (A) (A)
                 (A) (A) (A) (A) (A) (A) (A) (A) (A) (A) (A) (A)
                 (A) (A) (A) (A) (A) (A) (A) (A) (A) (A) (A) (A)
                 (A) (A) (A) (A) (A) (A) (A) (A) (A) (A) (A) (A)
                 (A) (A) (A) (A) (A) (A) (A) (A) (A) (A) (A) (A)
                 (A) (A) (A) (A) (A) (A) (A) (A) (A) (A) (A) (A)
                 (A) (A) (A) (A) (A) (A) (A) (A) (A) (A) (A) (A)
                 (A) (A) (A) (A) (A) (A) (A) (A) (A) (A) (A) (A)
                 (A) (A) (A) (A) (A) (A) (A) (A) (A) (A) (A) (A)
                 (A) (A) (A) (A) (A) (A) (A) (A) (A) (A) (A) (A)
                 (A) (A) (A) (A) (A) (A) (A) (A) (A) (A) (A) (A)
                 (A) (A) (A) (A) (A) (A) (A) (A) (A) (A) (A) (A)
                 (A) (A) (A) (A) (A) (A) (A) (A) (A) (A) (A) (A)
                 (A) (A) (A) (A) (A) (A) (A) (A) (A) (A) (A) (A)
                 (A) (A) (A) (A) (A) (A) (A) (A) (A) (A) (A) (A)
                 (A) (A) (A) (A) (A) (A) (A) (A) (A) (A) (A) (A)
                 (A) (A) (A) (A) (A) (A) (A) (A) (A) (A) (A) (A)
                 (A) (A) (A) (A) (A) (A) (A) (A) (A) (A) (A) (A)
                 (A) (A) (A) (A) (A) (A) (A) (A) (A) (A) (A) (A)
                 (A) (A) (A) (A) (A) (A) (A) (A) (A) (A) (A) (A)
                 (A) (A) (A) (A) (A) (A) (A) (A) (A) (A) (A) (A)
                 (A) (A) (A) (A) (A) (A) (A) (A) (A) (A) (A) (A)
                 (A) (A) (A) (A) (A) (A) (A) (A) (A) (A) (A) (A)
                 (A) (A) (A) (A) (A) (A) (A) (A) (A) (A) (A) (A)
                 (A) (A) (A) (A) (A) (A) (A) (A) (A) (A) (A) (A)
                 (A) (A) (A) (A) (A) (A) (A) (A) (A) (A) (A) (A)
                 (A) (A) (A) (A) (A) (A) (A) (A) (A) (A) (A) (A)
                 (A) (A) (A) (A) (A) (A) (A) (A) (A) (A) (A) (A)
                 (A) (A) (A) (A) (A) (A) (A) (A) (A) (A) (A) (A)
                 (A) (A) (A) (A) (A) (A) (A) (A) (A) (A) (A) (A)
                 (A) (A) (A) (A) (A) (A) (A) (A) (A) (A) (A) (A)
                 (A) (A) (A) (A) (A) (A) (A) (A) (A) (A) (A) (A)
                 (A) (A) (A) (A) (A) (A) (A) (A) (A) (A) (A) (A)
                 (A) (A) (A) (A) (A) (A) (A) (A) (A) (A) (A) (A)
                 (A) (A) (A) (A) (A) (A) (A) (A) (A) (A) (A) (A)
                 (A) (A) (A) (A) (A) (A) (A) (A) (A) (A)
 The electronic state is 1-A.
 Alpha  occ. eigenvalues --  -19.29671 -19.24203 -19.20618 -19.20562 -19.20428
 Alpha  occ. eigenvalues --  -19.20249 -19.19759 -19.19220 -19.17588 -14.45368
 Alpha  occ. eigenvalues --  -14.43973 -14.41797 -14.40504 -10.40693 -10.36491
 Alpha  occ. eigenvalues --  -10.32371 -10.31954 -10.31924 -10.29987 -10.29728
 Alpha  occ. eigenvalues --  -10.29681 -10.29543 -10.29435 -10.29413 -10.29324
 Alpha  occ. eigenvalues --  -10.29084 -10.29011 -10.28888 -10.28619 -10.28420
 Alpha  occ. eigenvalues --  -10.27957 -10.27764 -10.27576 -10.27560 -10.27268
 Alpha  occ. eigenvalues --  -10.27255 -10.26955 -10.26952 -10.26888 -10.26493
 Alpha  occ. eigenvalues --  -10.26302 -10.26298 -10.26186 -10.26037 -10.26027
 Alpha  occ. eigenvalues --  -10.25917 -10.25715 -10.25098 -10.24659 -10.24298
 Alpha  occ. eigenvalues --  -10.24213 -10.24091 -10.23841 -10.23729 -10.23584
 Alpha  occ. eigenvalues --  -10.23296 -10.23201 -10.23111 -10.23011 -10.22990
 Alpha  occ. eigenvalues --  -10.22954 -10.22904 -10.22422 -10.22328 -10.22305
 Alpha  occ. eigenvalues --  -10.22213 -10.22151 -10.22103 -10.21244  -6.80868
 Alpha  occ. eigenvalues --   -6.79967  -6.78695  -3.63439  -2.05932  -2.05622
 Alpha  occ. eigenvalues --   -2.04496  -1.15432  -1.06545  -1.06338  -1.06254
 Alpha  occ. eigenvalues --   -1.05545  -1.05111  -0.99944  -0.99499  -0.99423
 Alpha  occ. eigenvalues --   -0.98540  -0.97405  -0.94643  -0.91499  -0.89255
 Alpha  occ. eigenvalues --   -0.89041  -0.85876  -0.85432  -0.84288  -0.83756
 Alpha  occ. eigenvalues --   -0.82722  -0.80704  -0.80680  -0.80454  -0.79834
 Alpha  occ. eigenvalues --   -0.78814  -0.77358  -0.77289  -0.76714  -0.76266
 Alpha  occ. eigenvalues --   -0.75134  -0.75065  -0.74937  -0.74287  -0.73917
 Alpha  occ. eigenvalues --   -0.73303  -0.72718  -0.70752  -0.70360  -0.69896
 Alpha  occ. eigenvalues --   -0.69609  -0.68972  -0.68002  -0.67959  -0.67668
 Alpha  occ. eigenvalues --   -0.67097  -0.65646  -0.65351  -0.64765  -0.63501
 Alpha  occ. eigenvalues --   -0.63431  -0.62190  -0.62072  -0.61516  -0.60954
 Alpha  occ. eigenvalues --   -0.60624  -0.60307  -0.60131  -0.59360  -0.58243
 Alpha  occ. eigenvalues --   -0.57997  -0.56863  -0.56159  -0.54906  -0.54865
 Alpha  occ. eigenvalues --   -0.54818  -0.54426  -0.53975  -0.53971  -0.53334
 Alpha  occ. eigenvalues --   -0.53220  -0.52889  -0.52616  -0.51967  -0.51868
 Alpha  occ. eigenvalues --   -0.51540  -0.51080  -0.50573  -0.50160  -0.49058
 Alpha  occ. eigenvalues --   -0.48262  -0.47870  -0.47708  -0.47619  -0.47399
 Alpha  occ. eigenvalues --   -0.47085  -0.47037  -0.46818  -0.46674  -0.46460
 Alpha  occ. eigenvalues --   -0.46190  -0.46087  -0.45916  -0.45820  -0.45654
 Alpha  occ. eigenvalues --   -0.45181  -0.44844  -0.44756  -0.44599  -0.44507
 Alpha  occ. eigenvalues --   -0.44419  -0.44244  -0.44017  -0.43892  -0.43763
 Alpha  occ. eigenvalues --   -0.43744  -0.43678  -0.43578  -0.43221  -0.43051
 Alpha  occ. eigenvalues --   -0.42991  -0.42851  -0.42525  -0.41629  -0.41585
 Alpha  occ. eigenvalues --   -0.41260  -0.40461  -0.40381  -0.40336  -0.40159
 Alpha  occ. eigenvalues --   -0.39999  -0.39915  -0.39839  -0.39680  -0.39593
 Alpha  occ. eigenvalues --   -0.39501  -0.39319  -0.39250  -0.39140  -0.38878
 Alpha  occ. eigenvalues --   -0.38773  -0.38578  -0.38453  -0.38366  -0.38208
 Alpha  occ. eigenvalues --   -0.37821  -0.37697  -0.37632  -0.37449  -0.37187
 Alpha  occ. eigenvalues --   -0.37021  -0.36932  -0.36903  -0.36694  -0.36591
 Alpha  occ. eigenvalues --   -0.36309  -0.36018  -0.35933  -0.35878  -0.35585
 Alpha  occ. eigenvalues --   -0.35469  -0.35213  -0.35085  -0.35037  -0.34656
 Alpha  occ. eigenvalues --   -0.34423  -0.34268  -0.34135  -0.33817  -0.33544
 Alpha  occ. eigenvalues --   -0.33155  -0.32557  -0.32446  -0.32123  -0.31962
 Alpha  occ. eigenvalues --   -0.31896  -0.31689  -0.31321  -0.31143  -0.31027
 Alpha  occ. eigenvalues --   -0.30595  -0.30278  -0.30086  -0.29690  -0.28525
 Alpha  occ. eigenvalues --   -0.28069  -0.27604  -0.27551  -0.26848  -0.26570
 Alpha  occ. eigenvalues --   -0.26429  -0.26346  -0.26293  -0.25678  -0.25511
 Alpha  occ. eigenvalues --   -0.24848  -0.24117  -0.23910  -0.23437  -0.22556
 Alpha  occ. eigenvalues --   -0.21641  -0.21251  -0.21053
 Alpha virt. eigenvalues --   -0.07218  -0.05797  -0.04653  -0.03624  -0.02206
 Alpha virt. eigenvalues --   -0.00783   0.00057   0.00389   0.01364   0.01449
 Alpha virt. eigenvalues --    0.02055   0.03799   0.03917   0.05395   0.05797
 Alpha virt. eigenvalues --    0.06075   0.06926   0.07017   0.07779   0.08306
 Alpha virt. eigenvalues --    0.08493   0.09109   0.09395   0.09529   0.09758
 Alpha virt. eigenvalues --    0.09985   0.10417   0.10691   0.11086   0.11383
 Alpha virt. eigenvalues --    0.11565   0.11610   0.11707   0.12192   0.12328
 Alpha virt. eigenvalues --    0.12531   0.12770   0.12965   0.13246   0.13697
 Alpha virt. eigenvalues --    0.13845   0.13957   0.14199   0.14438   0.14675
 Alpha virt. eigenvalues --    0.14898   0.14939   0.15084   0.15205   0.15331
 Alpha virt. eigenvalues --    0.15424   0.15567   0.15641   0.15747   0.15870
 Alpha virt. eigenvalues --    0.16173   0.16353   0.16464   0.16607   0.16841
 Alpha virt. eigenvalues --    0.17044   0.17158   0.17266   0.17493   0.17615
 Alpha virt. eigenvalues --    0.17859   0.17923   0.18092   0.18266   0.18343
 Alpha virt. eigenvalues --    0.18448   0.18624   0.18988   0.19050   0.19229
 Alpha virt. eigenvalues --    0.19392   0.19526   0.19649   0.19845   0.19885
 Alpha virt. eigenvalues --    0.19959   0.20124   0.20191   0.20285   0.20622
 Alpha virt. eigenvalues --    0.20741   0.20801   0.21004   0.21088   0.21596
 Alpha virt. eigenvalues --    0.21804   0.22224   0.22306   0.22664   0.22721
 Alpha virt. eigenvalues --    0.22963   0.23235   0.23803   0.23870   0.24080
 Alpha virt. eigenvalues --    0.24162   0.24438   0.24591   0.24705   0.25255
 Alpha virt. eigenvalues --    0.25331   0.25358   0.25630   0.26003   0.26038
 Alpha virt. eigenvalues --    0.26230   0.26605   0.26868   0.26906   0.26980
 Alpha virt. eigenvalues --    0.27300   0.27431   0.27662   0.27943   0.28038
 Alpha virt. eigenvalues --    0.28396   0.28436   0.28598   0.28958   0.29348
 Alpha virt. eigenvalues --    0.29641   0.30006   0.30283   0.30565   0.30819
 Alpha virt. eigenvalues --    0.31011   0.31260   0.31591   0.32289   0.32543
 Alpha virt. eigenvalues --    0.32873   0.32979   0.33216   0.33451   0.34029
 Alpha virt. eigenvalues --    0.34399   0.34848   0.35282   0.35461   0.35725
 Alpha virt. eigenvalues --    0.36028   0.36242   0.37265   0.37445   0.37649
 Alpha virt. eigenvalues --    0.37902   0.38658   0.39211   0.39524   0.39952
 Alpha virt. eigenvalues --    0.40734   0.40852   0.41327   0.42025   0.42633
 Alpha virt. eigenvalues --    0.42972   0.44001   0.44669   0.45303   0.46004
 Alpha virt. eigenvalues --    0.46431   0.47575   0.48200   0.48398   0.48575
 Alpha virt. eigenvalues --    0.48982   0.49206   0.49585   0.49823   0.50201
 Alpha virt. eigenvalues --    0.50622   0.50733   0.50849   0.51407   0.51655
 Alpha virt. eigenvalues --    0.51883   0.52119   0.52179   0.52359   0.52584
 Alpha virt. eigenvalues --    0.52609   0.52768   0.53296   0.53397   0.53836
 Alpha virt. eigenvalues --    0.54113   0.54342   0.54475   0.54851   0.55074
 Alpha virt. eigenvalues --    0.55199   0.55337   0.55506   0.55680   0.55865
 Alpha virt. eigenvalues --    0.56212   0.56438   0.56619   0.56667   0.56920
 Alpha virt. eigenvalues --    0.57168   0.57212   0.57445   0.57548   0.57625
 Alpha virt. eigenvalues --    0.57821   0.58063   0.58111   0.58295   0.58391
 Alpha virt. eigenvalues --    0.58539   0.58685   0.58736   0.58794   0.58969
 Alpha virt. eigenvalues --    0.59060   0.59222   0.59294   0.59563   0.59675
 Alpha virt. eigenvalues --    0.59925   0.59999   0.60214   0.60479   0.60586
 Alpha virt. eigenvalues --    0.60779   0.60847   0.61110   0.61375   0.61400
 Alpha virt. eigenvalues --    0.61670   0.61770   0.62066   0.62450   0.62588
 Alpha virt. eigenvalues --    0.62895   0.63043   0.63083   0.63358   0.63696
 Alpha virt. eigenvalues --    0.63872   0.64121   0.64232   0.64302   0.64652
 Alpha virt. eigenvalues --    0.64908   0.65174   0.65494   0.65547   0.65780
 Alpha virt. eigenvalues --    0.66038   0.66070   0.66363   0.66451   0.66769
 Alpha virt. eigenvalues --    0.66936   0.67390   0.67528   0.67731   0.67945
 Alpha virt. eigenvalues --    0.68017   0.68253   0.68628   0.68762   0.69125
 Alpha virt. eigenvalues --    0.69307   0.69801   0.69937   0.70029   0.70462
 Alpha virt. eigenvalues --    0.70514   0.71045   0.71089   0.71237   0.71406
 Alpha virt. eigenvalues --    0.71697   0.72002   0.72139   0.72934   0.73137
 Alpha virt. eigenvalues --    0.73541   0.73730   0.73816   0.74377   0.74717
 Alpha virt. eigenvalues --    0.74842   0.75231   0.75519   0.75601   0.75849
 Alpha virt. eigenvalues --    0.76144   0.76929   0.77023   0.77242   0.77661
 Alpha virt. eigenvalues --    0.77888   0.78038   0.78174   0.78358   0.78687
 Alpha virt. eigenvalues --    0.78961   0.79048   0.79254   0.79577   0.79926
 Alpha virt. eigenvalues --    0.80169   0.80362   0.80489   0.80971   0.81046
 Alpha virt. eigenvalues --    0.81104   0.81312   0.81601   0.81938   0.82180
 Alpha virt. eigenvalues --    0.82367   0.82852   0.83029   0.83144   0.83227
 Alpha virt. eigenvalues --    0.83391   0.83504   0.83706   0.84188   0.84324
 Alpha virt. eigenvalues --    0.84544   0.84739   0.85014   0.85269   0.85442
 Alpha virt. eigenvalues --    0.85569   0.85840   0.86016   0.86122   0.86279
 Alpha virt. eigenvalues --    0.86556   0.86702   0.86859   0.87100   0.87188
 Alpha virt. eigenvalues --    0.87578   0.87624   0.87952   0.88199   0.88347
 Alpha virt. eigenvalues --    0.88563   0.88652   0.88803   0.88930   0.89101
 Alpha virt. eigenvalues --    0.89665   0.89890   0.90008   0.90158   0.90221
 Alpha virt. eigenvalues --    0.90431   0.90655   0.91074   0.91201   0.91487
 Alpha virt. eigenvalues --    0.91525   0.91811   0.91889   0.92132   0.92254
 Alpha virt. eigenvalues --    0.92413   0.92456   0.92767   0.93208   0.93285
 Alpha virt. eigenvalues --    0.93619   0.94177   0.94355   0.94541   0.94861
 Alpha virt. eigenvalues --    0.95146   0.95453   0.95690   0.95926   0.96157
 Alpha virt. eigenvalues --    0.96385   0.96472   0.96758   0.96895   0.97170
 Alpha virt. eigenvalues --    0.97579   0.97660   0.97855   0.98022   0.98276
 Alpha virt. eigenvalues --    0.98445   0.98716   0.99126   0.99292   0.99660
 Alpha virt. eigenvalues --    0.99807   0.99955   1.00375   1.00607   1.00827
 Alpha virt. eigenvalues --    1.01487   1.01674   1.02062   1.02508   1.02680
 Alpha virt. eigenvalues --    1.03077   1.03785   1.04325   1.04611   1.04949
 Alpha virt. eigenvalues --    1.05233   1.05401   1.05975   1.06417   1.06862
 Alpha virt. eigenvalues --    1.07227   1.07547   1.07775   1.08453   1.08748
 Alpha virt. eigenvalues --    1.09000   1.09655   1.10061   1.10336   1.10789
 Alpha virt. eigenvalues --    1.10824   1.11154   1.11353   1.11748   1.12387
 Alpha virt. eigenvalues --    1.12679   1.13006   1.13209   1.13797   1.13866
 Alpha virt. eigenvalues --    1.14815   1.15148   1.15283   1.15629   1.16200
 Alpha virt. eigenvalues --    1.16383   1.16875   1.17501   1.17770   1.17986
 Alpha virt. eigenvalues --    1.18242   1.18736   1.18834   1.19038   1.19561
 Alpha virt. eigenvalues --    1.20048   1.20755   1.20831   1.21496   1.22019
 Alpha virt. eigenvalues --    1.22139   1.22338   1.22711   1.23499   1.23671
 Alpha virt. eigenvalues --    1.24568   1.25000   1.25402   1.25908   1.26372
 Alpha virt. eigenvalues --    1.26563   1.27245   1.27746   1.27970   1.28430
 Alpha virt. eigenvalues --    1.28835   1.29293   1.29744   1.29847   1.30481
 Alpha virt. eigenvalues --    1.30497   1.30572   1.31085   1.31521   1.31697
 Alpha virt. eigenvalues --    1.32126   1.32606   1.33062   1.33412   1.33514
 Alpha virt. eigenvalues --    1.33711   1.35122   1.35349   1.35806   1.36112
 Alpha virt. eigenvalues --    1.36676   1.37143   1.37348   1.37777   1.38192
 Alpha virt. eigenvalues --    1.39126   1.39362   1.40143   1.40648   1.40930
 Alpha virt. eigenvalues --    1.41284   1.41382   1.42111   1.42375   1.42720
 Alpha virt. eigenvalues --    1.43158   1.43937   1.44479   1.44536   1.44881
 Alpha virt. eigenvalues --    1.44892   1.45135   1.45441   1.45842   1.45961
 Alpha virt. eigenvalues --    1.46141   1.46454   1.46815   1.47108   1.47386
 Alpha virt. eigenvalues --    1.47725   1.47765   1.47929   1.48327   1.48563
 Alpha virt. eigenvalues --    1.48763   1.48936   1.49417   1.49555   1.49829
 Alpha virt. eigenvalues --    1.49903   1.50143   1.50830   1.50974   1.51349
 Alpha virt. eigenvalues --    1.51638   1.52163   1.52257   1.52788   1.53916
 Alpha virt. eigenvalues --    1.54641   1.55410   1.55786   1.56825   1.57141
 Alpha virt. eigenvalues --    1.57667   1.58216   1.58906   1.59524   1.60326
 Alpha virt. eigenvalues --    1.60674   1.62181   1.62502   1.63081   1.63648
 Alpha virt. eigenvalues --    1.63868   1.64480   1.65199   1.65795   1.66542
 Alpha virt. eigenvalues --    1.66675   1.67634   1.68102   1.68766   1.69197
 Alpha virt. eigenvalues --    1.69677   1.70296   1.70714   1.71246   1.71873
 Alpha virt. eigenvalues --    1.72099   1.72422   1.72879   1.73402   1.73983
 Alpha virt. eigenvalues --    1.74344   1.74885   1.75761   1.75977   1.76446
 Alpha virt. eigenvalues --    1.76753   1.76931   1.77207   1.77400   1.77581
 Alpha virt. eigenvalues --    1.78227   1.78612   1.78956   1.79086   1.79208
 Alpha virt. eigenvalues --    1.80186   1.80510   1.80983   1.81332   1.81590
 Alpha virt. eigenvalues --    1.81883   1.82232   1.82300   1.82632   1.83282
 Alpha virt. eigenvalues --    1.83457   1.83565   1.84063   1.84413   1.84618
 Alpha virt. eigenvalues --    1.84897   1.85137   1.85633   1.85786   1.86059
 Alpha virt. eigenvalues --    1.86356   1.86604   1.86744   1.87003   1.87263
 Alpha virt. eigenvalues --    1.87474   1.87666   1.88028   1.88640   1.88975
 Alpha virt. eigenvalues --    1.89143   1.89333   1.89652   1.89825   1.90283
 Alpha virt. eigenvalues --    1.90656   1.90859   1.90996   1.91494   1.91955
 Alpha virt. eigenvalues --    1.92061   1.92191   1.92272   1.92346   1.92472
 Alpha virt. eigenvalues --    1.92705   1.93007   1.93272   1.93556   1.93990
 Alpha virt. eigenvalues --    1.94445   1.94732   1.95093   1.95969   1.96250
 Alpha virt. eigenvalues --    1.96400   1.97244   1.97393   1.97964   1.98277
 Alpha virt. eigenvalues --    1.98488   1.99478   1.99994   2.00486   2.01525
 Alpha virt. eigenvalues --    2.01689   2.02343   2.02472   2.02633   2.02834
 Alpha virt. eigenvalues --    2.02916   2.03247   2.03494   2.03838   2.03984
 Alpha virt. eigenvalues --    2.04368   2.04971   2.05006   2.05810   2.05918
 Alpha virt. eigenvalues --    2.06080   2.06388   2.06730   2.07120   2.07379
 Alpha virt. eigenvalues --    2.07807   2.07925   2.08504   2.08552   2.08726
 Alpha virt. eigenvalues --    2.08896   2.09455   2.09996   2.10255   2.10460
 Alpha virt. eigenvalues --    2.10732   2.10815   2.11366   2.11608   2.11791
 Alpha virt. eigenvalues --    2.12000   2.12345   2.12708   2.12922   2.13023
 Alpha virt. eigenvalues --    2.13809   2.14303   2.14675   2.14739   2.14975
 Alpha virt. eigenvalues --    2.15094   2.15505   2.15756   2.16280   2.16593
 Alpha virt. eigenvalues --    2.16989   2.17236   2.17412   2.17619   2.17900
 Alpha virt. eigenvalues --    2.18257   2.18771   2.18942   2.19060   2.19438
 Alpha virt. eigenvalues --    2.19681   2.19886   2.20116   2.20576   2.20823
 Alpha virt. eigenvalues --    2.21155   2.21615   2.22136   2.22195   2.22278
 Alpha virt. eigenvalues --    2.22782   2.23233   2.23445   2.23715   2.23883
 Alpha virt. eigenvalues --    2.24205   2.24741   2.25132   2.25304   2.25739
 Alpha virt. eigenvalues --    2.26478   2.26791   2.26862   2.27224   2.27365
 Alpha virt. eigenvalues --    2.27645   2.27875   2.27948   2.28125   2.28495
 Alpha virt. eigenvalues --    2.28545   2.28638   2.29121   2.29843   2.30213
 Alpha virt. eigenvalues --    2.30389   2.31478   2.31736   2.31810   2.32134
 Alpha virt. eigenvalues --    2.32576   2.33037   2.33151   2.33455   2.33623
 Alpha virt. eigenvalues --    2.34046   2.34221   2.34529   2.35035   2.35393
 Alpha virt. eigenvalues --    2.36168   2.36651   2.37063   2.37696   2.38432
 Alpha virt. eigenvalues --    2.39266   2.39431   2.40185   2.40645   2.41291
 Alpha virt. eigenvalues --    2.42387   2.43673   2.44131   2.44875   2.45932
 Alpha virt. eigenvalues --    2.47331   2.47969   2.48019   2.48312   2.48561
 Alpha virt. eigenvalues --    2.48885   2.49106   2.49265   2.49547   2.50193
 Alpha virt. eigenvalues --    2.51317   2.51443   2.51701   2.52979   2.54856
 Alpha virt. eigenvalues --    2.55378   2.56648   2.58117   2.58505   2.58919
 Alpha virt. eigenvalues --    2.59004   2.59463   2.59660   2.60025   2.60350
 Alpha virt. eigenvalues --    2.60436   2.60845   2.61129   2.62512   2.62718
 Alpha virt. eigenvalues --    2.62776   2.63542   2.64044   2.65253   2.65311
 Alpha virt. eigenvalues --    2.65494   2.65746   2.66485   2.66582   2.66813
 Alpha virt. eigenvalues --    2.67571   2.68970   2.69173   2.69360   2.69435
 Alpha virt. eigenvalues --    2.70340   2.71783   2.72792   2.73375   2.73897
 Alpha virt. eigenvalues --    2.75473   2.75808   2.76187   2.77944   2.78474
 Alpha virt. eigenvalues --    2.78585   2.78885   2.79522   2.80006   2.80245
 Alpha virt. eigenvalues --    2.80455   2.80615   2.80936   2.81172   2.81508
 Alpha virt. eigenvalues --    2.81550   2.81593   2.82179   2.82512   2.83018
 Alpha virt. eigenvalues --    2.83575   2.83953   2.84967   2.85702   2.86536
 Alpha virt. eigenvalues --    2.87083   2.87496   2.91062   2.92883   2.93143
 Alpha virt. eigenvalues --    2.93597   2.94481   2.95394   2.96714   2.96778
 Alpha virt. eigenvalues --    2.97306   2.98072   2.98354   2.98596   2.99298
 Alpha virt. eigenvalues --    3.00484   3.03298   3.04607   3.04857   3.08345
 Alpha virt. eigenvalues --    3.09511   3.11105   3.11298   3.12522   3.13458
 Alpha virt. eigenvalues --    3.15763   3.16932   3.19397   3.24185   3.27611
 Alpha virt. eigenvalues --    3.29444   3.33114   3.33772   3.36638   3.43843
 Alpha virt. eigenvalues --    3.44340   3.48217  14.05462
          Condensed to atoms (all electrons):
 Mulliken charges:
               1
     1  C    0.287197
     2  C    0.039353
     3  C   -0.210856
     4  C    0.096592
     5  C   -0.230001
     6  C    0.291326
     7  C    0.050550
     8  C   -0.176019
     9  C   -0.139645
    10  C   -0.187894
    11  H    0.222703
    12  H    0.164818
    13  H    0.247573
    14  H    0.177586
    15  N   -0.458341
    16  N   -0.496369
    17  Ir  -0.168112
    18  O   -0.527354
    19  O   -0.524501
    20  O   -0.501374
    21  B    0.502209
    22  B    0.482114
    23  B    0.507013
    24  O   -0.516892
    25  O   -0.531930
    26  C    0.308650
    27  C    0.282990
    28  C    0.290201
    29  C    0.293891
    30  C    0.293016
    31  C    0.298731
    32  O   -0.524889
    33  C   -0.508155
    34  H    0.147375
    35  H    0.166124
    36  H    0.165547
    37  C   -0.492912
    38  H    0.155674
    39  H    0.138691
    40  H    0.183266
    41  C   -0.502526
    42  H    0.165144
    43  H    0.149815
    44  H    0.163256
    45  C   -0.506006
    46  H    0.148042
    47  H    0.158727
    48  H    0.173467
    49  C   -0.503114
    50  H    0.163502
    51  H    0.146562
    52  H    0.188780
    53  C   -0.504758
    54  H    0.152777
    55  H    0.166936
    56  H    0.160810
    57  C   -0.513934
    58  H    0.151114
    59  H    0.164195
    60  H    0.176891
    61  C   -0.510052
    62  H    0.154134
    63  H    0.148392
    64  H    0.187455
    65  C   -0.508644
    66  H    0.169562
    67  H    0.166110
    68  H    0.151802
    69  C   -0.500466
    70  H    0.166589
    71  H    0.152987
    72  H    0.155215
    73  C   -0.507668
    74  H    0.149309
    75  H    0.169653
    76  H    0.163857
    77  C   -0.497954
    78  H    0.164003
    79  H    0.146271
    80  H    0.173781
    81  C   -0.188879
    82  C    0.094044
    83  C   -0.113104
    84  C   -0.202946
    85  C   -0.158940
    86  C   -0.153602
    87  H    0.145232
    88  H    0.243754
    89  H    0.156836
    90  H    0.176699
    91  H    0.110689
    92  H    0.185051
    93  H    0.149120
    94  C    0.090078
    95  C   -0.202710
    96  C   -0.184196
    97  C   -0.171617
    98  H    0.166549
    99  C   -0.170175
   100  H    0.148497
   101  C    0.023086
   102  H    0.181864
   103  H    0.172773
   104  C    0.601400
   105  O   -0.511198
   106  O   -0.474151
   107  C   -0.264487
   108  H    0.198900
   109  H    0.196987
   110  H    0.180220
   111  H    0.185124
   112  C    0.080567
   113  C   -0.190233
   114  C   -0.221020
   115  C   -0.166189
   116  H    0.160105
   117  C    0.070417
   118  H    0.144367
   119  C   -0.185076
   120  H    0.166203
   121  H    0.165341
   122  C    0.080614
   123  C   -0.197291
   124  C   -0.278748
   125  C   -0.177364
   126  H    0.145176
   127  C    0.356971
   128  H    0.139619
   129  C   -0.176418
   130  H    0.156938
   131  H    0.206925
   132  N   -0.786586
   133  C    0.770037
   134  H    0.379791
   135  O   -0.528186
   136  C   -0.361865
   137  H    0.158527
   138  H    0.219691
   139  H    0.168204
   140  N   -0.667994
   141  H    0.364616
 Sum of Mulliken charges =  -0.00000
 Mulliken charges with hydrogens summed into heavy atoms:
               1
     1  C    0.287197
     2  C    0.262056
     3  C   -0.034157
     4  C    0.096592
     5  C   -0.065182
     6  C    0.291326
     7  C    0.298123
     8  C    0.009032
     9  C    0.045479
    10  C   -0.010308
    15  N   -0.458341
    16  N   -0.496369
    17  Ir  -0.168112
    18  O   -0.527354
    19  O   -0.524501
    20  O   -0.501374
    21  B    0.502209
    22  B    0.482114
    23  B    0.507013
    24  O   -0.516892
    25  O   -0.531930
    26  C    0.308650
    27  C    0.282990
    28  C    0.290201
    29  C    0.293891
    30  C    0.293016
    31  C    0.298731
    32  O   -0.524889
    33  C   -0.029109
    37  C   -0.015282
    41  C   -0.024311
    45  C   -0.025770
    49  C   -0.004269
    53  C   -0.024235
    57  C   -0.021734
    61  C   -0.020071
    65  C   -0.021170
    69  C   -0.025675
    73  C   -0.024848
    77  C   -0.013900
    81  C   -0.078190
    82  C    0.094044
    83  C    0.130651
    84  C   -0.057714
    85  C   -0.002104
    86  C   -0.004483
    94  C    0.090078
    95  C   -0.036162
    96  C   -0.035699
    97  C    0.010247
    99  C    0.002599
   101  C    0.023086
   104  C    0.601400
   105  O   -0.511198
   106  O   -0.474151
   107  C    0.311619
   112  C    0.080567
   113  C   -0.030128
   114  C   -0.076653
   115  C    0.000014
   117  C    0.070417
   119  C   -0.019735
   122  C    0.080614
   123  C   -0.052115
   124  C   -0.139129
   125  C   -0.020426
   127  C    0.356971
   129  C    0.030507
   132  N   -0.406794
   133  C    0.770037
   135  O   -0.528186
   136  C    0.184557
   140  N   -0.303378
 APT charges:
               1
     1  C    0.255562
     2  C    0.122437
     3  C   -0.190915
     4  C    0.409693
     5  C   -0.318849
     6  C    0.185513
     7  C    0.045072
     8  C   -0.079177
     9  C    0.120761
    10  C   -0.191678
    11  H    0.123367
    12  H    0.056483
    13  H    0.156601
    14  H    0.043042
    15  N   -0.292825
    16  N   -0.127575
    17  Ir  -1.170680
    18  O   -1.022109
    19  O   -1.042091
    20  O   -0.946876
    21  B    1.409390
    22  B    1.337849
    23  B    1.266764
    24  O   -0.938850
    25  O   -1.053951
    26  C    0.536883
    27  C    0.502783
    28  C    0.467275
    29  C    0.444311
    30  C    0.502544
    31  C    0.509585
    32  O   -1.015133
    33  C   -0.005954
    34  H   -0.022505
    35  H   -0.001791
    36  H    0.000858
    37  C   -0.030508
    38  H   -0.003192
    39  H   -0.037210
    40  H    0.024627
    41  C   -0.034303
    42  H   -0.001494
    43  H   -0.031632
    44  H    0.011697
    45  C   -0.010373
    46  H   -0.023685
    47  H   -0.005586
    48  H    0.003898
    49  C   -0.034520
    50  H    0.003184
    51  H   -0.030600
    52  H    0.014826
    53  C   -0.010758
    54  H   -0.019725
    55  H    0.003616
    56  H    0.001802
    57  C   -0.010081
    58  H   -0.018555
    59  H   -0.002144
    60  H    0.006312
    61  C   -0.036794
    62  H   -0.006897
    63  H   -0.024635
    64  H    0.025141
    65  C   -0.002055
    66  H    0.000640
    67  H    0.006743
    68  H   -0.018659
    69  C   -0.015660
    70  H   -0.006339
    71  H   -0.022733
    72  H   -0.006900
    73  C   -0.005953
    74  H   -0.015612
    75  H    0.000697
    76  H   -0.001025
    77  C   -0.034827
    78  H   -0.000572
    79  H   -0.029416
    80  H    0.028695
    81  C   -0.119458
    82  C   -0.104471
    83  C    0.214629
    84  C   -0.102360
    85  C   -0.138499
    86  C    0.005488
    87  H    0.019242
    88  H    0.342874
    89  H    0.043309
    90  H    0.049621
    91  H    0.033184
    92  H    0.037525
    93  H   -0.016290
    94  C    0.386533
    95  C   -0.246768
    96  C   -0.212001
    97  C    0.152133
    98  H    0.043016
    99  C    0.153583
   100  H    0.026961
   101  C   -0.533698
   102  H    0.049125
   103  H    0.049893
   104  C    1.712196
   105  O   -1.041282
   106  O   -1.046136
   107  C    0.557504
   108  H   -0.000097
   109  H   -0.001781
   110  H   -0.030382
   111  H    0.033783
   112  C    0.016445
   113  C   -0.128099
   114  C   -0.138317
   115  C    0.032829
   116  H    0.040385
   117  C    0.179343
   118  H    0.050141
   119  C   -0.125211
   120  H    0.003681
   121  H    0.037934
   122  C    0.127172
   123  C   -0.220307
   124  C   -0.212923
   125  C    0.129981
   126  H    0.032931
   127  C    0.616808
   128  H    0.018603
   129  C   -0.219982
   130  H   -0.000155
   131  H    0.125628
   132  N   -1.104517
   133  C    1.644915
   134  H    0.277043
   135  O   -0.876580
   136  C    0.388478
   137  H   -0.062716
   138  H    0.079307
   139  H   -0.062021
   140  N   -0.947754
   141  H    0.304332
 Sum of APT charges =  -0.00000
 APT charges with hydrogens summed into heavy atoms:
               1
     1  C    0.255562
     2  C    0.245804
     3  C   -0.141294
     4  C    0.409693
     5  C   -0.262366
     6  C    0.185513
     7  C    0.201673
     8  C   -0.041651
     9  C    0.154544
    10  C   -0.148636
    15  N   -0.292825
    16  N   -0.127575
    17  Ir  -1.170680
    18  O   -1.022109
    19  O   -1.042091
    20  O   -0.946876
    21  B    1.409390
    22  B    1.337849
    23  B    1.266764
    24  O   -0.938850
    25  O   -1.053951
    26  C    0.536883
    27  C    0.502783
    28  C    0.467275
    29  C    0.444311
    30  C    0.502544
    31  C    0.509585
    32  O   -1.015133
    33  C   -0.029392
    37  C   -0.046282
    41  C   -0.055732
    45  C   -0.035746
    49  C   -0.047110
    53  C   -0.025065
    57  C   -0.024468
    61  C   -0.043185
    65  C   -0.013331
    69  C   -0.051632
    73  C   -0.021892
[...]
 ,-0.00000731,-0.00000750,0.00000473,0.00000528,-0.00000749,0.00001241,
 0.00000080,-0.00002775,-0.00003809,0.00000456,-0.00003411,0.00000083,0
 .00000418,0.00019697,-0.00019335,-0.00000749,0.00008709,0.00000206,-0.
 00001938,0.00008374,-0.00005428,0.00004803,0.00005471,-0.00008593,-0.0
 0006031,-0.00013129,0.00011410,-0.00010664,-0.00011035,0.00000203,0.00
 004221,-0.00007230,0.00014630,0.00004182,0.00002050,-0.00011933,-0.000
 04191,0.00006048,0.00001183,-0.00003646,-0.00003748,-0.00000411,0.0000
 0651,-0.00004785,-0.00000902,0.00002412,-0.00001395,0.00004475,0.00001
 202,-0.00000876,0.00002761,0.00003420,-0.00001629,0.00001770,-0.000035
 26,-0.00003364,0.00004154,-0.00001988,0.00004296,-0.00007196,0.0000787
 0,0.00000096,0.00000469,0.00000068,0.00000473,0.00000183,-0.00000423,-
 0.00000014,-0.00000182,0.00000391,-0.00000292,-0.00000538,-0.00000087,
 0.00000600,-0.00000139,-0.00000198,-0.00000055,-0.00000121,0.00000340,
 0.00000739,-0.00000029,-0.00000454,-0.00000323,0.00000166,0.00000048,0
 .00000066,0.00000458,0.00001263,-0.00000302,-0.00000204,0.00000511,0.0
 0000924,0.00000260,-0.00000360,-0.00000881,-0.00000738,-0.00000894,0.0
 0000167,-0.00000442,-0.00000186,0.00000514,0.00000302,-0.00000025,-0.0
 0000303,0.00000075,-0.00000007,0.00000044,-0.00000449,-0.00000098,-0.0
 0000138,0.00000099,0.00000589,-0.00000235,0.00000088,-0.00000244,0.000
 00330,-0.00000144,0.00000638,0.00000078,-0.00000241,-0.00000473,0.0000
 0308,-0.00000063,0.00000176,0.00000249,-0.00000237,0.00000466,0.000000
 24,0.00000138,-0.00000235,-0.00000158,-0.00000133,-0.00000245,0.000003
 20,-0.00000289,0.00000300,0.00000548,-0.00000345,0.00000326,-0.0000036
 5,0.00000292,0.00000008,-0.00000341,-0.00000080,-0.00000307,0.00000379
 ,-0.00000705,-0.00000039,-0.00000334,0.00000334,0.00000045,0.00000489,
 -0.00000674,0.00000262,-0.00000066,0.00000447,-0.00000128,0.00000308,-
 0.00000213,-0.00000311,-0.00000397,-0.00000063,0.00000328,0.00000002,0
 .00000149,0.00000128,0.00000327,-0.00000472,-0.00000386,0.00000255,0.0
 0000408,-0.00000921,-0.00000242,0.00000330,0.00000404,0.00000237,-0.00
 000538,-0.00000686,-0.00000099,-0.00000298,0.00000597,0.00000104,-0.00
 000313,-0.00000247,0.00000208,-0.00000673,-0.00000317,-0.00000053,0.00
 000302,0.00000044,-0.00000048,0.00000326,0.00000197,0.00000221,-0.0000
 0713,-0.00000110,-0.00000200,0.00000255,0.00000159,0.00000468,-0.00000
 750,-0.00000104,-0.00000239,0.00000462,-0.00000064,0.00003690,0.000066
 89,0.00008088,0.00014523,0.00000760,-0.00000686,0.00003745,0.00014663,
 0.00007584,0.00005819,-0.00013775,-0.00007698,0.00010285,-0.00002779,-
 0.00002462,0.00003301,-0.00006010,0.00000133,-0.00002558,-0.00002742,0
 .00000685,-0.00010626,0.00013025,-0.00002488,0.00000733,0.00000779,0.0
 0001337,0.00000512,0.00001130,0.00001129,-0.00003526,0.00003897,-0.000
 00018,-0.00000255,0.00000542,-0.00000053,0.00002642,0.00001357,0.00000
 712,-0.00044135,0.00003909,0.00006279,0.00054332,-0.00017966,-0.000103
 82,0.00025846,0.00026699,0.00020775,-0.00016665,-0.00047625,-0.0004763
 4,0.00007274,0.00002199,0.00003181,-0.00031561,0.00029562,0.00032394,0
 .00005126,-0.00001699,-0.00004372,0.00155124,0.00116059,0.00050774,-0.
 00005141,0.00000347,-0.00002204,-0.00017995,0.00012280,0.00003641,-0.0
 0323726,-0.00867675,-0.00701473,-0.00129163,0.00354916,0.00404463,-0.0
 0266172,0.00286502,0.00262376,0.00204275,-0.00024908,-0.00029025,-0.00
 017013,0.00000583,0.00005041,0.00013547,-0.00000631,0.00041689,0.00028
 528,0.00019066,0.00003151,-0.00000464,0.00000627,0.00000084,0.00000055
 ,-0.00000708,-0.00000517,-0.00006912,-0.00000589,-0.00004813,-0.000066
 12,0.00003812,-0.00004229,0.00000512,-0.00000581,0.00002104,-0.0000098
 8,0.00001088,-0.00000354,0.00019364,-0.00004776,0.00012693,0.00003450,
 0.00001099,0.00002201,-0.00008402,0.00002172,-0.00005710,-0.00000790,0
 .00000405,-0.00000236,0.00000136,-0.00002757,0.00002685,0.00001147,-0.
 00000626,-0.00000538,-0.00018015,0.00020785,-0.00012427,-0.00016154,0.
 00044817,0.00005965,0.00002400,-0.00028278,-0.00000820,-0.00002236,0.0
 0002624,-0.00000249,-0.00003825,-0.00183939,0.00008096,-0.00004876,-0.
 00001744,-0.00008151,0.00005098,0.00041295,0.00010912,0.00000764,0.000
 01678,0.00001067,0.00012021,-0.00029366,-0.00008037,-0.00375635,0.0036
 0445,-0.00017670,0.00861938,-0.00687001,0.00522710,0.00036356,0.004703
 72,-0.00075180,0.00326721,0.00616467,-0.00033524,-0.01283038,-0.009131
 83,-0.00389690,0.00018791,-0.00065041,0.00020972,-0.00134242,0.0024780
 6,-0.00044187,0.00087148,-0.00030228,0.00014831,-0.31435252,-0.1426312
 8,-0.12563463,0.32239218,0.00002595,0.00002298,-0.00001049,0.00000901,
 0.00001222,-0.00000849,-0.00002823,-0.00002303,0.00000248,0.00006783,0
 .00005905,-0.00003059,-0.00003101,-0.00003674,0.00003116,-0.00000066,0
 .00001251,-0.00001256,-0.00000306,-0.00000151,0.00000634,-0.00000257,-
 0.00000664,0.00000055,-0.00000095,-0.00000226,-0.00000094,0.00000918,-
 0.00000116,0.00000398,0.00000144,0.00000227,0.00000166,0.00000641,0.00
 000789,-0.00000796,-0.00000037,0.00000300,0.00000263,-0.00000228,0.000
 00120,-0.00000167,-0.00002182,-0.00002070,0.00000092,-0.00001508,-0.00
 000329,0.00000455,0.00005214,-0.00006453,-0.00000298,0.00001158,-0.000
 00834,-0.00000497,0.00001489,-0.00001432,0.00001029,0.00000923,-0.0000
 2574,-0.00001348,-0.00002643,0.00003457,-0.00002921,-0.00001287,0.0000
 1368,0.00000824,-0.00000864,0.00004748,0.00000578,-0.00000084,-0.00003
 785,-0.00001010,0.00000385,-0.00000854,-0.00000444,-0.00000491,0.00000
 641,0.00000137,-0.00000946,-0.00000030,0.00000389,-0.00000117,0.000012
 45,0.00000218,0.00000034,0.00000747,0.00001000,-0.00000155,0.00000549,
 -0.00000713,-0.00000597,0.00001109,-0.00000228,0.00000281,-0.00002154,
 0.00001924,-0.00000049,0.00000139,0.00000019,0.00000062,0.00000021,-0.
 00000086,0.00000001,-0.00000032,0.00000088,-0.00000024,-0.00000195,-0.
 00000046,0.00000140,-0.00000077,0.00000004,0.00000038,-0.00000017,0.00
 000098,0.00000132,-0.00000010,-0.00000076,-0.00000056,0.00000036,-0.00
 000036,-0.00000020,-0.00000018,0.00000354,-0.00000044,0.00000012,0.000
 00201,0.00000157,-0.00000018,-0.00000091,-0.00000222,-0.00000141,-0.00
 000306,-0.00000022,-0.00000198,-0.00000047,0.00000042,0.00000058,0.000
 00008,-0.00000038,0.00000067,0.00000036,0.00000077,-0.00000175,-0.0000
 0052,-0.00000115,-0.00000019,0.00000169,-0.00000111,0.00000003,-0.0000
 0024,0.00000062,-0.00000020,0.00000111,0.00000078,-0.00000035,-0.00000
 114,0.00000050,-0.00000026,0.00000055,0.00000070,-0.00000035,0.0000008
 6,-0.00000039,0.00000025,-0.00000014,-0.00000023,-0.00000093,-0.000001
 00,0.00000126,-0.00000060,0.00000017,0.00000111,-0.00000056,0.00000067
 ,-0.00000110,0.00000089,0.00000072,-0.00000114,-0.00000103,-0.00000099
 ,0.00000166,-0.00000210,-0.00000138,-0.00000172,0.00000062,0.00000188,
 0.00000069,-0.00000158,0.00000048,0.00000083,0.00000101,-0.00000087,0.
 00000144,-0.00000013,-0.00000153,-0.00000161,-0.00000099,0.00000132,-0
 .00000032,0.00000049,-0.00000016,0.00000092,-0.00000114,-0.00000060,0.
 00000137,0.00000192,-0.00000416,-0.00000176,-0.00000021,0.00000235,0.0
 0000049,-0.00000121,-0.00000185,0.00000027,-0.00000064,0.00000123,0.00
 000024,-0.00000109,-0.00000037,0.00000089,-0.00000171,-0.00000095,-0.0
 0000106,0.00000033,0.00000031,0.,0.00000133,-0.00000009,0.00000017,-0.
 00000236,-0.00000026,-0.00000134,0.00000011,0.00000080,0.00000136,-0.0
 0000178,-0.00000041,-0.00000027,0.00000153,-0.00000010,0.00001659,0.00
 001709,0.00002223,0.00004156,-0.00000551,-0.00000451,0.00001221,0.0000
 4789,0.00002794,0.00001283,-0.00003548,-0.00002097,0.00003258,-0.00001
 076,-0.00000803,0.00000860,-0.00001840,-0.00000093,-0.00000568,-0.0000
 1061,0.00000148,-0.00003426,0.00004473,-0.00000709,0.00000146,0.000002
 45,0.00000458,0.00000442,0.00000552,0.00000589,-0.00001217,0.00001137,
 0.00000023,-0.00000205,0.00000175,0.00000091,0.00000567,0.00000190,0.0
 0000201,-0.00012717,0.00000828,0.00000932,0.00012638,-0.00009802,-0.00
 004915,0.00008530,0.00004559,0.00003087,-0.00012606,-0.00007526,-0.000
 08245,0.00000698,0.00000496,0.00000743,-0.00003092,0.00013050,0.000160
 65,0.00002122,-0.00000184,-0.00001475,0.00037577,0.00002397,-0.0002722
 9,-0.00003513,-0.00001939,-0.00003839,-0.00000713,0.00002133,0.0000009
 2,-0.00266123,-0.00027733,-0.00068606,0.00071210,-0.00212231,0.0006159
 4,0.00104023,-0.00071056,-0.00013197,-0.00127877,0.00105351,-0.0010481
 7,0.00023893,-0.00018887,0.00045522,0.00008755,0.00017764,-0.00016898,
 0.00070199,-0.00140844,0.00017172,-0.00000003,0.00000321,-0.00000042,0
 .00000787,0.00000194,-0.00000146,-0.00003753,0.00000109,-0.00002870,-0
 .00004294,0.00001068,-0.00000546,0.00000011,-0.00000415,0.00000783,-0.
 00000765,0.00000646,-0.00000339,0.00010929,-0.00000896,0.00006089,0.00
 002891,0.00000591,0.00000264,-0.00005237,0.00000631,-0.00002866,-0.000
 00597,0.00000558,-0.00000377,0.00000354,-0.00001316,0.00001650,0.00002
 874,-0.00013223,0.00001210,-0.00007859,0.00015280,-0.00005325,-0.00027
 643,0.00030989,-0.00005167,0.00019910,-0.00008064,0.00011796,0.0000034
 1,0.00001720,0.00000945,0.00072179,-0.00154399,0.00022842,0.00006496,-
 0.00002303,0.00002025,-0.00013185,0.00047308,-0.00006306,-0.00000528,0
 .00004959,0.00000287,-0.00004829,0.00026170,0.00001978,-0.00017416,0.0
 0216368,-0.00002113,-0.03176307,-0.00705375,-0.01061546,0.00321977,-0.
 00356749,0.00095523,0.00104118,-0.00707085,-0.00150711,0.01757942,0.01
 447862,0.00764670,0.00010361,-0.00029862,-0.00091273,0.00399834,-0.003
 07193,0.00156783,-0.00039410,-0.00003398,0.00057305,-0.13832218,-0.152
 73702,-0.06117959,0.14497790,0.16110945,0.00001786,0.00002427,0.000004
 06,0.00001179,0.00001820,-0.00001413,-0.00003102,-0.00003109,-0.000005
 66,0.00006630,0.00006639,-0.00002955,-0.00001496,-0.00004118,0.0000349
 0,0.00000748,0.00001500,0.00001652,-0.00001119,-0.00000592,0.00000296,
 0.00000484,0.00000047,-0.00000207,-0.00000407,-0.00000704,0.00002472,0
 .00000896,0.00000720,-0.00002603,-0.00000340,0.00000505,0.00000078,0.0
 0000338,0.00000981,-0.00000473,0.00000306,0.00000596,0.00000630,-0.000
 00096,-0.00000467,0.00000777,-0.00001757,-0.00002121,-0.00001009,-0.00
 003661,-0.00000346,-0.00000480,0.00011983,-0.00012483,-0.00001758,0.00
 004434,-0.00000311,-0.00002187,0.00004134,-0.00002725,0.00001342,0.000
 02977,-0.00005208,-0.00004403,-0.00006910,0.00006115,-0.00004048,-0.00
 005969,0.00000314,0.00004546,-0.00003654,0.00009024,0.00003401,0.00000
 885,-0.00007482,-0.00003452,0.00002746,0.00000576,-0.00003581,-0.00001
 902,0.00000002,0.00000481,-0.00002653,-0.00000523,0.00001750,-0.000005
 60,0.00002668,0.00000950,-0.00000081,0.00001780,0.00002836,-0.00000725
 ,0.00000905,-0.00001215,-0.00001502,0.00002132,-0.00000443,0.00001930,
 -0.00003545,0.00002569,0.00000005,0.00000326,-0.00000020,0.00000318,0.
 00000085,-0.00000236,-0.00000106,-0.00000033,0.00000121,-0.00000129,-0
 .00000381,0.00000035,0.00000358,-0.00000096,-0.00000141,-0.00000096,-0
 .00000014,0.00000084,0.00000462,-0.00000008,-0.00000235,-0.00000171,0.
 00000042,0.00000052,0.00000126,0.00000298,0.00001060,-0.00000239,-0.00
 000093,0.00000093,0.00000489,0.00000116,-0.00000204,-0.00000487,-0.000
 00470,-0.00000569,0.00000168,-0.00000339,0.00000015,0.00000223,0.00000
 118,-0.00000031,-0.00000232,0.00000173,-0.00000164,0.00000102,-0.00000
 288,-0.00000017,-0.00000173,0.00000011,0.00000295,-0.00000046,0.000000
 42,-0.00000135,0.00000078,-0.00000030,0.00000232,0.00000082,-0.0000016
 2,-0.00000171,0.00000140,0.00000007,0.00000069,0.00000082,-0.00000094,
 0.00000156,0.00000087,0.00000104,-0.00000098,-0.00000112,-0.00000182,-
 0.00000104,0.00000098,-0.00000176,0.00000108,0.00000273,-0.00000185,0.
 00000132,-0.00000053,0.00000308,0.00000021,-0.00000308,-0.00000172,-0.
 00000161,0.00000100,-0.00000387,-0.00000102,-0.00000094,0.00000171,0.0
 0000139,0.00000186,-0.00000315,0.00000151,0.00000062,0.00000180,-0.000
 00131,0.00000107,-0.00000157,-0.00000338,-0.00000172,-0.00000055,0.000
 00296,-0.00000173,0.00000128,-0.00000018,0.00000247,-0.00000314,-0.000
 00223,-0.00000122,0.00000074,-0.00000642,-0.00000142,0.00000109,0.0000
 0407,0.00000215,-0.00000391,-0.00000485,0.00000054,0.00000071,0.000003
 13,0.00000205,-0.00000229,-0.00000133,0.00000164,-0.00000386,-0.000001
 96,-0.00000031,0.00000140,0.00000042,-0.00000178,0.00000250,0.00000022
 ,0.00000049,-0.00000538,-0.00000150,-0.00000165,0.00000125,0.00000141,
 0.00000275,-0.00000405,-0.00000036,-0.00000134,0.00000323,-0.00000085,
 0.00003122,0.00003803,0.00004703,0.00008959,-0.00000534,-0.00001156,0.
 00002990,0.00009875,0.00005763,0.00004001,-0.00009129,-0.00005860,0.00
 007358,-0.00001839,-0.00001909,0.00002270,-0.00003865,-0.00000226,-0.0
 0001660,-0.00001870,0.00001121,-0.00007459,0.00009201,-0.00001437,0.00
 000416,0.00000540,0.00001091,0.00000108,0.00001152,0.00000504,-0.00002
 443,0.00002692,0.00000507,0.00000267,0.00000225,-0.00000164,0.00001759
 ,0.00000782,0.00000750,-0.00027574,0.00001222,0.00005202,0.00033957,-0
 .00010896,-0.00010537,0.00019760,0.00014613,0.00006359,0.00000427,-0.0
 0029739,-0.00025736,0.00005031,0.00001699,0.00001957,-0.00008898,0.000
 35977,0.00026291,0.00006246,-0.00002138,-0.00002445,0.00111897,0.00054
 093,0.00049934,-0.00007474,-0.00006136,-0.00003785,-0.00011883,0.00002
 633,0.00009858,-0.00318049,-0.00305302,-0.00246718,0.00143581,0.001501
 43,-0.00053575,0.00095116,0.00048909,0.00033376,-0.00103082,-0.0006242
 0,0.00002378,0.00033459,0.00032662,0.00019590,0.00012634,0.00014745,-0
 .00165457,0.00027428,-0.00094861,0.00033698,0.00000201,-0.00000182,-0.
 00000996,0.00000504,0.00000292,-0.00000631,-0.00005029,-0.00000181,-0.
 00003788,-0.00004970,-0.00000453,-0.00002779,0.00000578,-0.00000392,0.
 00001032,-0.00000878,0.00000860,-0.00000117,0.00014019,-0.00001992,0.0
 0009374,0.00002876,0.00001475,0.00002451,-0.00006051,0.00000856,-0.000
 04854,-0.00000769,0.00000828,-0.00000180,0.00000388,-0.00001139,0.0000
 2433,-0.00004194,-0.00004096,0.00004191,-0.00011233,0.00016250,-0.0001
 0033,-0.00008979,0.00039380,-0.00002877,0.00001600,-0.00019373,0.00000
 686,-0.00002757,0.00001667,0.00001616,0.00053502,-0.00136168,-0.001037
 93,-0.00006287,-0.00002240,-0.00001753,0.00007153,0.00034717,0.0000440
 5,0.00000893,0.00001482,0.00000211,-0.00002661,-0.00022790,0.00014452,
 -0.00127655,0.00269942,-0.00260472,0.00224404,-0.00729597,-0.00659098,
 -0.00099513,0.00169275,0.00303414,-0.00095085,0.00134469,0.00646052,-0
 .00519633,-0.00310269,-0.00455285,0.00057157,0.00008528,-0.00000650,-0
 .00058504,0.00087700,-0.00027084,-0.00006107,-0.00090375,0.00000897,-0
 .11969789,-0.05725450,-0.05319146,0.12527638,0.06428420,0.06182203\\-0
 .00000165,0.00000066,-0.00000474,0.,-0.00000048,0.00000081,0.00000319,
 0.00000103,0.00000202,-0.00000733,-0.00000320,-0.00000612,-0.00000161,
 -0.00000186,0.00000191,0.00000010,-0.00000082,0.00000659,0.00000164,0.
 00000216,0.00000410,0.00000367,0.00000124,-0.00000053,-0.00000239,-0.0
 0000056,0.00000585,0.00000219,0.00000101,-0.00000543,0.00000056,-0.000
 00013,0.00000088,0.00000232,0.00000073,0.00000205,0.00000041,0.0000006
 4,-0.00000037,0.00000102,0.00000078,0.00000029,0.00000127,0.00000072,0
 .00000053,-0.00000350,-0.00000085,-0.00000533,-0.00000048,-0.00000100,
 -0.00000023,0.00000058,-0.00000108,0.00000237,-0.00000315,0.00000270,-
 0.00000343,0.00000100,0.00000051,0.00000073,0.00000285,-0.00000359,0.0
 0000368,0.00000216,0.00000262,-0.00000499,0.00000119,0.00000304,0.0000
 0081,-0.00000030,-0.00000371,-0.00000186,-0.00000011,-0.00000032,0.000
 00572,-0.00000334,-0.00000092,-0.00000428,-0.00000229,-0.00000065,0.00
 000399,0.00000096,0.00000056,-0.00000193,0.00000122,0.00000223,0.00000
 071,-0.00000121,-0.00000284,0.00000144,0.00000273,-0.00000503,-0.00000
 215,-0.00000152,0.00000254,-0.00000203,0.00000387,0.00000160,-0.000006
 20,-0.00000278,-0.00000021,0.00000367,0.00000148,-0.00000158,0.0000055
 3,-0.00000259,0.00000292,0.00000207,-0.00000056,0.00000096,0.00000343,
 -0.00000072,0.00000107,-0.00000089,0.00000206,0.00000109,0.00000048,-0
 .00000082,0.00000030,0.00000101,-0.00000287,0.00000306,-0.00000260,0.0
 0000366,-0.00000100,0.00000559,-0.00000036,0.00000097,0.00000172,-0.00
 000046,0.00000072,0.00000164,0.00000300,-0.00000637,0.00000127,-0.0000
 0035,0.00000168,0.00000052,0.00000009,0.00000215,0.00000114,-0.0000007
 5,0.00000620,0.00000172,0.00000382,-0.00000558,0.00000902,0.00000155,0
 .00000201,-0.00000104,-0.00000362,0.00000209,-0.00000487,-0.00000202,0
 .00000222,0.00000026,0.00000149,0.00000340,0.00000538,-0.00000131,0.00
 000062,-0.00000309,-0.00000073,0.00000068,0.00000146,-0.00000136,-0.00
 000168,-0.00000009,0.00000337,-0.00000059,0.00000108,-0.00000346,0.000
 00137,-0.00000134,-0.00000118,-0.00000059,0.00000088,-0.00000114,-0.00
 000119,0.00000053,-0.00000422,0.00000605,0.00000320,0.00000192,-0.0000
 0083,-0.00000142,0.00000190,-0.00000273,0.00000119,0.00000018,0.000000
 18,-0.00000100,-0.00000213,-0.00000224,-0.00000284,0.00000163,0.000001
 12,0.00000005,0.00000049,0.00000081,0.00000083,0.00000040,0.00000189,0
 .00000066,0.00000163,-0.00000452,0.00000139,0.00000101,0.00000054,-0.0
 0000088,0.00000002,0.00000215,0.00000136,0.00000063,0.00000215,-0.0000
 0111,0.00000362,-0.00000033,0.00000628,0.00000059,0.00000086,-0.000000
 75,0.00000155,0.00000111,0.00000010,-0.00000274,0.00000163,-0.00000184
 ,0.00000069,0.00000468,-0.00000591,-0.00000070,-0.00000005,0.00000134,
 0.00000057,-0.00000127,0.00000023,-0.00000023,0.00000065,0.00000481,-0
 .00000423,0.00000722,-0.00000084,0.00000212,-0.00000547,0.00000140,0.0
 0000221,-0.00000340,0.00000037,0.00000010,0.00000258,0.00000002,-0.000
 00655,0.00000435,0.00000244,0.00000297,-0.00000452,-0.00000032,-0.0000
 0090,0.00000062,0.00000090,-0.00000058,0.00000131,0.00000177,0.0000039
 0,0.00000135,0.00000007,-0.00000046,0.,-0.00000184,-0.00000189,-0.0000
 0372,0.00000031,0.00000007,0.00000081,-0.00000029,-0.00000117,0.000000
 92,0.00000154,0.00000131,-0.00000153,-0.00000108,-0.00000315,0.0000028
 0,0.00000390,-0.00000298,-0.00000618,-0.00000553,-0.00000143,-0.000001
 52,-0.00000289,-0.00000035,-0.00000064,0.00000028,0.00000640,0.0000050
 2,0.00000368,-0.00000173,0.00000192,0.00000260,-0.00000197,-0.00000055
 ,0.00000138,-0.00000028,-0.00000138,0.00000002,-0.00000186,-0.00000249
 ,-0.00000204,0.00000142,-0.00000904,-0.00000743,0.00000185,0.00000261,
 0.00000198,-0.00000308,0.00000328,0.00000417,-0.00000024,0.00000411,-0
 .00000644,-0.00000126,-0.00000041,0.00000071,-0.00000104,-0.00000409,-
 0.00000017,0.00000070,-0.00000274,0.00000332,-0.00000052,0.00000010,-0
 .00000247,0.00000861,-0.00000130,0.00000165,-0.00000684,0.00000625,-0.
 00000677,0.00000037,0.00000657,-0.00000353,0.00000387,-0.00000248,-0.0
 0000203,0.00000364,-0.00000227,0.00000164,-0.00000535,-0.00000342,-0.0
 0000328,0.00000027,-0.00000363,0.00000117,-0.00000418,-0.00000016,0.00
 000032,-0.00000093,-0.00000329,0.00000091,0.00000322,0.00000038,-0.000
 00182,0.00000066,0.00000240,-0.00000075,-0.00000105,0.00000497,-0.0000
 0276,0.00000178,-0.00000713,-0.00000183,0.00000374,0.00000146,0.000001
 05,0.00000078,-0.00000330,-0.00000132,0.00000183,-0.00000239,0.0000010
 8,0.00000048,0.00000055,-0.00000033,-0.00000204,-0.00000632,-0.0000033
 3,-0.00000001,-0.00000025,-0.00000218,0.00000034,-0.00000009,-0.000001
 67,-0.00000015,0.00000339,-0.00000140,-0.00000689,-0.00000004,-0.00000
 351,0.00000018,-0.00000008,-0.00000090,0.00000511,0.00000146,0.0000006
 4,-0.00000014,-0.00000590,-0.00000238,-0.00000127,0.00000140,0.0000011
 6,0.00000071,-0.00000020,-0.00000101,0.00000076,0.00000059,-0.00000123
 ,-0.00000117,-0.00000265,-0.00000141,0.00000204,-0.00000023,-0.0000006
 8\\\@
 The archive entry for this job was punched.


 What some people mistake for the high cost
 of living is really the cost of living high.
                              -- Doug Larson
 Job cpu time:       2 days 18 hours 42 minutes 38.9 seconds.
 Elapsed time:       0 days  4 hours 18 minutes 12.0 seconds.
 File lengths (MBytes):  RWF=  21177 Int=      0 D2E=      0 Chk=     94 Scr=      1
 Normal termination of Gaussian 16 at Sun Dec  8 02:31:01 2024.
