/mnt/lustre/scratch/nvme/SLURM/9664120/usccqdma.fp2VuH1S3w
OMP_STACKSIZE=0m
GAUSS_PDEF=16
GAUSS_MDEF=65536MB
GAUSS_RDEF=SCF=Direct
 Entering Gaussian System, Link 0=g16.exe
 Initial command:
 /opt/cesga/2020/software/Core/g16/c1/l1.exe "/mnt/lustre/scratch/nvme/SLURM/9664120/usccqdma.fp2VuH1S3w/Gau-1831616.inp" -scrdir="/mnt/lustre/scratch/nvme/SLURM/9664120/usccqdma.fp2VuH1S3w/"
 Default is to use a total of  16 processors:
                               16 via shared-memory
                                1 via Linda
 Entering Link 1 = /opt/cesga/2020/software/Core/g16/c1/l1.exe PID=   1831644.
  
 Copyright (c) 1988-2019, Gaussian, Inc.  All Rights Reserved.
  
 This is part of the Gaussian(R) 16 program.  It is based on
 the Gaussian(R) 09 system (copyright 2009, Gaussian, Inc.),
 the Gaussian(R) 03 system (copyright 2003, Gaussian, Inc.),
 the Gaussian(R) 98 system (copyright 1998, Gaussian, Inc.),
 the Gaussian(R) 94 system (copyright 1995, Gaussian, Inc.),
 the Gaussian 92(TM) system (copyright 1992, Gaussian, Inc.),
 the Gaussian 90(TM) system (copyright 1990, Gaussian, Inc.),
 the Gaussian 88(TM) system (copyright 1988, Gaussian, Inc.),
 the Gaussian 86(TM) system (copyright 1986, Carnegie Mellon
 University), and the Gaussian 82(TM) system (copyright 1983,
 Carnegie Mellon University). Gaussian is a federally registered
 trademark of Gaussian, Inc.
  
 This software contains proprietary and confidential information,
 including trade secrets, belonging to Gaussian, Inc.
  
 This software is provided under written license and may be
 used, copied, transmitted, or stored only in accord with that
 written license.
  
 The following legend is applicable only to US Government
 contracts under FAR:
  
                    RESTRICTED RIGHTS LEGEND
  
 Use, reproduction and disclosure by the US Government is
 subject to restrictions as set forth in subparagraphs (a)
 and (c) of the Commercial Computer Software - Restricted
 Rights clause in FAR 52.227-19.
  
 Gaussian, Inc.
 340 Quinnipiac St., Bldg. 40, Wallingford CT 06492
  
  
 ---------------------------------------------------------------
 Warning -- This program may not be used in any manner that
 competes with the business of Gaussian, Inc. or will provide
 assistance to any competitor of Gaussian, Inc.  The licensee
 of this program is prohibited from giving any competitor of
 Gaussian, Inc. access to this program.  By using this program,
 the user acknowledges that Gaussian, Inc. is engaged in the
 business of creating and licensing software in the field of
 computational chemistry and represents and warrants to the
 licensee that it is not a competitor of Gaussian, Inc. and that
 it will not use this program in any manner prohibited above.
 ---------------------------------------------------------------
  

 Cite this work as:
 Gaussian 16, Revision C.01,
 M. J. Frisch, G. W. Trucks, H. B. Schlegel, G. E. Scuseria, 
 M. A. Robb, J. R. Cheeseman, G. Scalmani, V. Barone, 
 G. A. Petersson, H. Nakatsuji, X. Li, M. Caricato, A. V. Marenich, 
 J. Bloino, B. G. Janesko, R. Gomperts, B. Mennucci, H. P. Hratchian, 
 J. V. Ortiz, A. F. Izmaylov, J. L. Sonnenberg, D. Williams-Young, 
 F. Ding, F. Lipparini, F. Egidi, J. Goings, B. Peng, A. Petrone, 
 T. Henderson, D. Ranasinghe, V. G. Zakrzewski, J. Gao, N. Rega, 
 G. Zheng, W. Liang, M. Hada, M. Ehara, K. Toyota, R. Fukuda, 
 J. Hasegawa, M. Ishida, T. Nakajima, Y. Honda, O. Kitao, H. Nakai, 
 T. Vreven, K. Throssell, J. A. Montgomery, Jr., J. E. Peralta, 
 F. Ogliaro, M. J. Bearpark, J. J. Heyd, E. N. Brothers, K. N. Kudin, 
 V. N. Staroverov, T. A. Keith, R. Kobayashi, J. Normand, 
 K. Raghavachari, A. P. Rendell, J. C. Burant, S. S. Iyengar, 
 J. Tomasi, M. Cossi, J. M. Millam, M. Klene, C. Adamo, R. Cammi, 
 J. W. Ochterski, R. L. Martin, K. Morokuma, O. Farkas, 
 J. B. Foresman, and D. J. Fox, Gaussian, Inc., Wallingford CT, 2019.
 
 ******************************************
 Gaussian 16:  ES64L-G16RevC.01  3-Jul-2019
                 7-Dec-2024 
 ******************************************
 Default route: SCF=Direct
 ----------------------------------------------------
 # m06/genecp scf=tight int=ultrafine 5d freq=noraman
 ----------------------------------------------------
 1/10=4,30=1,38=1/1,3;
 2/12=2,17=6,18=5,40=1/2;
 3/5=7,8=1,11=2,16=1,17=8,25=1,30=1,71=2,74=-54,75=-5,140=1/1,2,3;
 4//1;
 5/5=2,32=2,38=5,98=1/2;
 8/6=4,10=90,11=11/1;
 11/6=1,8=1,9=11,15=111,16=1/1,2,10;
 10/6=1/2;
 6/7=2,8=2,9=2,10=2,28=1/1;
 7/8=1,10=1,25=1/1,2,3,16;
 1/10=4,30=1/3;
 99//99;
 ------
 OPT-TS
 ------
 Symbolic Z-matrix:
 Charge =  0 Multiplicity = 1
 C                     0.5504   -1.72465   1.24112 
 C                     1.14679  -2.62921  -0.79636 
 C                     0.049    -3.48065  -0.7931 
 C                    -0.88746  -3.37784   0.23712 
 C                    -0.59954  -2.50448   1.28738 
 C                     0.93499  -0.81388   2.33841 
 C                     2.23422   0.99615   2.99421 
 C                     1.7948    0.89172   4.30772 
 C                     0.89392  -0.11441   4.63391 
 C                     0.45979  -0.97823   3.63899 
 H                     1.85473  -2.5953   -1.62661 
 H                    -1.29943  -2.41737   2.11671 
 H                     2.93954   1.76134   2.66931 
 H                    -0.22151  -1.79261   3.87325 
 N                     1.37018  -1.74355   0.176 
 N                     1.81405   0.16166   2.03588 
 Ir                    2.55234   0.2397   -0.09906 
 O                     4.14492   2.58951  -1.23847 
 O                     5.15378  -0.12685  -1.76762 
 O                     5.21437   0.07518   1.52816 
 B                     3.7941   -0.36212  -1.6188 
 B                     3.55347   1.99205  -0.1343 
 B                     4.28553  -0.60405   0.75714 
 O                     4.5363   -1.97161   0.78296 
 O                     3.70741   2.81156   0.98728 
 C                     4.34679   4.02921   0.56972 
 C                     5.04307   3.58998  -0.74853 
 C                     6.24265  -0.85457   1.90875 
 C                     5.49701  -2.21565   1.82109 
 C                     5.53634  -0.57386  -3.07456 
 C                     4.48698  -1.68416  -3.35237 
 O                     3.33528  -1.18342  -2.64977 
 C                     5.1952    4.67859  -1.7905 
 H                     5.81856   5.50164  -1.41171 
 H                     5.68503   4.26519  -2.68201 
 H                     4.22551   5.0844   -2.09924 
 C                     6.38177   2.90174  -0.50459 
 H                     6.70109   2.41407  -1.43547 
 H                     7.16103   3.61165  -0.19424 
 H                     6.27836   2.11607   0.25596 
 C                     3.25208   5.0634    0.34644 
 H                     2.65965   5.15649   1.26642 
 H                     3.66456   6.0521    0.10337 
 H                     2.57736   4.75509  -0.46326 
 C                     5.28685   4.48922   1.66577 
 H                     5.88546   5.34997   1.33393 
 H                     4.71082   4.80015   2.54754 
 H                     5.96462   3.68405   1.97114 
 C                     5.40418   0.623    -4.00826 
 H                     6.02033   1.44322  -3.61692 
 H                     5.74061   0.3897   -5.02764 
 H                     4.36803   0.98318  -4.0457 
 C                     6.97567  -1.04513  -3.03716 
 H                     7.28693  -1.4341   -4.01741 
 H                     7.63107  -0.20125  -2.78173 
 H                     7.13045  -1.82976  -2.28694 
 C                     4.13277  -1.87716  -4.81217 
 H                     5.01885  -2.17353  -5.39208 
 H                     3.38288  -2.67261  -4.91232 
 H                     3.71587  -0.96408  -5.25077 
 C                     4.85078  -3.01835  -2.71354 
 H                     3.98869  -3.69465  -2.79141 
 H                     5.70144  -3.49829  -3.2163 
 H                     5.08331  -2.8929   -1.64626 
 C                     6.35956  -3.39849   1.43206 
 H                     5.74315  -4.30533   1.38036 
 H                     6.82538  -3.25142   0.4505 
 H                     7.15349  -3.56843   2.17376 
 C                     4.69918  -2.53924   3.07943 
 H                     4.03127  -3.38299   2.86308 
 H                     5.3458   -2.8149    3.92355 
 H                     4.07483  -1.68489   3.37916 
 C                     6.74388  -0.48599   3.29038 
 H                     7.47736  -1.22065   3.65324 
 H                     7.23637   0.49447   3.2522 
 H                     5.9236   -0.42061   4.01446 
 C                     7.36593  -0.72414   0.88981 
 H                     7.73537   0.30954   0.89692 
 H                     8.20909  -1.38964   1.11954 
 H                     6.99637  -0.93542  -0.12203 
 C                    -1.75053   0.755    -1.25652 
 C                    -2.14391   1.89829  -0.54831 
 C                    -0.41851   0.36506  -1.29974 
 C                    -1.1392    2.64889   0.07837 
 C                     0.58287   1.07748  -0.62534 
 C                     0.19256   2.25789   0.02528 
 H                    -1.40966   3.53419   0.65513 
 H                     1.93373   0.87838  -1.49059 
 H                    -0.14896  -0.52289  -1.87531 
 H                    -0.12296  -4.15677  -1.62873 
 H                    -2.49396   0.17727  -1.80714 
 H                     2.1627    1.58837   5.05669 
 H                     0.94327   2.85805   0.54432 
 C                    -3.56068   2.28826  -0.45173 
 C                    -3.9398    3.63201  -0.29455 
 C                    -4.58027   1.32395  -0.49412 
 C                    -5.26821   3.99601  -0.15334 
 H                    -3.17404   4.40598  -0.30012 
 C                    -5.9098    1.68333  -0.36708 
 H                    -4.32829   0.2685   -0.59647 
 C                    -6.27045   3.01958  -0.17476 
 H                    -5.53815   5.04157  -0.02342 
 H                    -6.68422   0.92056  -0.41024 
 C                    -7.69098   3.33992   0.0303 
 O                    -8.57381   2.5134    0.20827 
 O                    -7.94077   4.65414   0.01796 
 C                    -9.29431   5.03093   0.23986 
 H                    -9.3033    6.12241   0.2465 
 H                    -9.93672   4.65285  -0.56342 
 H                    -9.65437   4.63898   1.19723 
 H                     0.53818  -0.23376   5.6555 
 C                    -2.17504  -4.09554   0.19109 
 C                    -2.25198  -5.46462  -0.07403 
 C                    -3.35005  -3.36157   0.35765 
 C                    -3.49752  -6.07958  -0.13974 
 H                    -1.33829  -6.04432  -0.20441 
 C                    -4.61061  -3.95921   0.26216 
 H                    -3.27566  -2.28021   0.48614 
 C                    -4.66211  -5.33932   0.02638 
 H                    -3.56223  -7.15151  -0.31958 
 H                    -5.62969  -5.83814  -0.01795 
 C                    -5.82735  -3.13206   0.34444 
 C                    -6.96233  -3.42654  -0.42019 
 C                    -5.86829  -1.97654   1.13388 
 C                    -8.07092  -2.59335  -0.45417 
 H                    -6.96114  -4.31118  -1.05724 
 C                    -6.96784  -1.13688   1.11703 
 H                    -5.02765  -1.73266   1.78373 
 C                    -8.06888  -1.40782   0.29185 
 H                    -8.92943  -2.82711  -1.07452 
 H                    -6.97579  -0.2403    1.73909 
 N                    -9.06887  -0.43821   0.23038 
 C                    -10.26454  -0.50627  -0.47585 
 H                    -8.80779   0.47861   0.5847 
 O                    -10.71279  -1.53151  -0.96297 
 C                    -12.12508   0.85832  -1.27441 
 H                    -11.96699   1.33979  -2.25083 
 H                    -12.53362  -0.14086  -1.44842 
 H                    -12.85622   1.4474   -0.70652 
 N                    -10.89961   0.70812  -0.53172 
 H                    -10.37148   1.53808  -0.28468 
 

 GradGradGradGradGradGradGradGradGradGradGradGradGradGradGradGradGradGrad
 Berny optimization.
 Initialization pass.
 Trust Radius=3.00D-01 FncErr=1.00D-07 GrdErr=1.00D-07 EigMax=2.50D+02 EigMin=1.00D-04
 Number of steps in this run=      2 maximum allowed number of steps=      2.
 GradGradGradGradGradGradGradGradGradGradGradGradGradGradGradGradGradGrad

 Stoichiometry    C56H68B3IrN4O9
 Framework group  C1[X(C56H68B3IrN4O9)]
 Deg. of freedom   417
 Full point group                 C1      NOp   1
 Largest Abelian subgroup         C1      NOp   1
 Largest concise Abelian subgroup C1      NOp   1
                         Standard orientation:                         
 ---------------------------------------------------------------------
 Center     Atomic      Atomic             Coordinates (Angstroms)
 Number     Number       Type             X           Y           Z
 ---------------------------------------------------------------------
      1          6           0        0.550401   -1.724650    1.241120
      2          6           0        1.146791   -2.629210   -0.796360
      3          6           0        0.049001   -3.480650   -0.793100
      4          6           0       -0.887459   -3.377840    0.237120
      5          6           0       -0.599539   -2.504480    1.287380
      6          6           0        0.934991   -0.813880    2.338410
      7          6           0        2.234221    0.996150    2.994210
      8          6           0        1.794801    0.891720    4.307720
      9          6           0        0.893921   -0.114410    4.633910
     10          6           0        0.459791   -0.978230    3.638990
     11          1           0        1.854731   -2.595300   -1.626610
     12          1           0       -1.299429   -2.417370    2.116710
     13          1           0        2.939540    1.761341    2.669310
     14          1           0       -0.221509   -1.792610    3.873250
     15          7           0        1.370181   -1.743550    0.176000
     16          7           0        1.814051    0.161660    2.035880
     17         77           0        2.552341    0.239700   -0.099060
     18          8           0        4.144920    2.589511   -1.238470
     19          8           0        5.153781   -0.126849   -1.767620
     20          8           0        5.214371    0.075181    1.528160
     21          5           0        3.794101   -0.362119   -1.618800
     22          5           0        3.553470    1.992051   -0.134300
     23          5           0        4.285531   -0.604049    0.757140
     24          8           0        4.536301   -1.971609    0.782960
     25          8           0        3.707410    2.811561    0.987280
     26          6           0        4.346790    4.029211    0.569720
     27          6           0        5.043070    3.589981   -0.748530
     28          6           0        6.242651   -0.854569    1.908750
     29          6           0        5.497011   -2.215649    1.821090
     30          6           0        5.536341   -0.573859   -3.074560
     31          6           0        4.486981   -1.684159   -3.352370
     32          8           0        3.335281   -1.183419   -2.649770
     33          6           0        5.195200    4.678591   -1.790500
     34          1           0        5.818560    5.501641   -1.411710
     35          1           0        5.685030    4.265191   -2.682010
     36          1           0        4.225510    5.084401   -2.099240
     37          6           0        6.381770    2.901741   -0.504590
     38          1           0        6.701090    2.414071   -1.435470
     39          1           0        7.161030    3.611651   -0.194240
     40          1           0        6.278360    2.116071    0.255960
     41          6           0        3.252080    5.063401    0.346440
     42          1           0        2.659650    5.156490    1.266420
     43          1           0        3.664560    6.052101    0.103370
     44          1           0        2.577360    4.755090   -0.463260
     45          6           0        5.286850    4.489221    1.665770
     46          1           0        5.885460    5.349971    1.333930
     47          1           0        4.710820    4.800151    2.547540
     48          1           0        5.964620    3.684051    1.971140
     49          6           0        5.404181    0.623001   -4.008260
     50          1           0        6.020330    1.443221   -3.616920
     51          1           0        5.740611    0.389701   -5.027640
     52          1           0        4.368031    0.983181   -4.045700
     53          6           0        6.975671   -1.045129   -3.037160
     54          1           0        7.286931   -1.434099   -4.017410
     55          1           0        7.631071   -0.201249   -2.781730
     56          1           0        7.130451   -1.829759   -2.286940
     57          6           0        4.132771   -1.877159   -4.812170
     58          1           0        5.018851   -2.173529   -5.392080
     59          1           0        3.382881   -2.672609   -4.912320
     60          1           0        3.715871   -0.964079   -5.250770
     61          6           0        4.850781   -3.018349   -2.713540
     62          1           0        3.988691   -3.694649   -2.791410
     63          1           0        5.701441   -3.498289   -3.216300
     64          1           0        5.083311   -2.892899   -1.646260
     65          6           0        6.359561   -3.398489    1.432060
     66          1           0        5.743151   -4.305329    1.380360
     67          1           0        6.825381   -3.251419    0.450500
     68          1           0        7.153491   -3.568429    2.173760
     69          6           0        4.699181   -2.539239    3.079430
     70          1           0        4.031271   -3.382989    2.863080
     71          1           0        5.345801   -2.814899    3.923550
     72          1           0        4.074831   -1.684889    3.379160
     73          6           0        6.743881   -0.485989    3.290380
     74          1           0        7.477361   -1.220649    3.653240
     75          1           0        7.236371    0.494471    3.252200
     76          1           0        5.923601   -0.420609    4.014460
     77          6           0        7.365931   -0.724139    0.889810
     78          1           0        7.735371    0.309541    0.896920
     79          1           0        8.209091   -1.389639    1.119540
     80          1           0        6.996371   -0.935419   -0.122030
     81          6           0       -1.750529    0.755000   -1.256520
     82          6           0       -2.143910    1.898290   -0.548310
     83          6           0       -0.418509    0.365060   -1.299740
     84          6           0       -1.139200    2.648890    0.078370
     85          6           0        0.582871    1.077480   -0.625340
     86          6           0        0.192560    2.257890    0.025280
     87          1           0       -1.409660    3.534190    0.655130
     88          1           0        1.933731    0.878380   -1.490590
     89          1           0       -0.148959   -0.522890   -1.875310
     90          1           0       -0.122959   -4.156770   -1.628730
     91          1           0       -2.493959    0.177270   -1.807140
     92          1           0        2.162700    1.588370    5.056690
     93          1           0        0.943270    2.858050    0.544320
     94          6           0       -3.560680    2.288260   -0.451730
     95          6           0       -3.939800    3.632010   -0.294550
     96          6           0       -4.580269    1.323950   -0.494120
     97          6           0       -5.268210    3.996010   -0.153340
     98          1           0       -3.174040    4.405980   -0.300120
     99          6           0       -5.909800    1.683330   -0.367080
    100          1           0       -4.328289    0.268500   -0.596470
    101          6           0       -6.270450    3.019580   -0.174760
    102          1           0       -5.538150    5.041570   -0.023420
    103          1           0       -6.684219    0.920560   -0.410240
    104          6           0       -7.690980    3.339920    0.030300
    105          8           0       -8.573810    2.513400    0.208270
    106          8           0       -7.940770    4.654140    0.017960
    107          6           0       -9.294310    5.030930    0.239860
    108          1           0       -9.303300    6.122410    0.246500
    109          1           0       -9.936720    4.652850   -0.563420
    110          1           0       -9.654370    4.638980    1.197230
    111          1           0        0.538181   -0.233760    5.655500
    112          6           0       -2.175039   -4.095540    0.191090
    113          6           0       -2.251979   -5.464620   -0.074030
    114          6           0       -3.350049   -3.361570    0.357650
    115          6           0       -3.497519   -6.079580   -0.139740
    116          1           0       -1.338289   -6.044320   -0.204410
    117          6           0       -4.610609   -3.959210    0.262160
    118          1           0       -3.275659   -2.280210    0.486140
    119          6           0       -4.662109   -5.339320    0.026380
    120          1           0       -3.562229   -7.151510   -0.319580
    121          1           0       -5.629689   -5.838140   -0.017950
    122          6           0       -5.827349   -3.132060    0.344440
    123          6           0       -6.962329   -3.426540   -0.420190
    124          6           0       -5.868289   -1.976540    1.133880
    125          6           0       -8.070919   -2.593350   -0.454170
    126          1           0       -6.961139   -4.311180   -1.057240
    127          6           0       -6.967839   -1.136880    1.117030
    128          1           0       -5.027649   -1.732660    1.783730
    129          6           0       -8.068879   -1.407820    0.291850
    130          1           0       -8.929429   -2.827110   -1.074520
    131          1           0       -6.975789   -0.240300    1.739090
    132          7           0       -9.068869   -0.438210    0.230380
    133          6           0      -10.264539   -0.506270   -0.475850
    134          1           0       -8.807789    0.478610    0.584700
    135          8           0      -10.712789   -1.531510   -0.962970
    136          6           0      -12.125079    0.858320   -1.274410
    137          1           0      -11.966990    1.339790   -2.250830
    138          1           0      -12.533619   -0.140860   -1.448420
    139          1           0      -12.856220    1.447400   -0.706520
    140          7           0      -10.899609    0.708120   -0.531720
    141          1           0      -10.371480    1.538080   -0.284680
 ---------------------------------------------------------------------
 Rotational constants (GHZ):           0.0486106           0.0147906           0.0131996
 General basis read from cards:  (5D, 7F)
 ======================================================================================================
                                       Pseudopotential Parameters
 ======================================================================================================
  Center     Atomic      Valence      Angular      Power
  Number     Number     Electrons     Momentum     of R      Exponent        Coefficient   SO-Coeffient
 ======================================================================================================
    1          6
                                   No pseudopotential on this center.
    2          6
                                   No pseudopotential on this center.
    3          6
                                   No pseudopotential on this center.
    4          6
                                   No pseudopotential on this center.
    5          6
                                   No pseudopotential on this center.
    6          6
                                   No pseudopotential on this center.
    7          6
                                   No pseudopotential on this center.
    8          6
                                   No pseudopotential on this center.
    9          6
                                   No pseudopotential on this center.
   10          6
                                   No pseudopotential on this center.
   11          1
                                   No pseudopotential on this center.
   12          1
                                   No pseudopotential on this center.
   13          1
                                   No pseudopotential on this center.
   14          1
                                   No pseudopotential on this center.
   15          7
                                   No pseudopotential on this center.
   16          7
                                   No pseudopotential on this center.
   17         77           17
                                      G and up 
                                                     1      823.5880147       -0.15780140    0.00000000
                                                     2      364.6613336    -1517.52704460    0.00000000
                                                     2       55.7082801     -316.53065290    0.00000000
                                                     2       12.0464544      -91.88809410    0.00000000
                                                     2        3.5120610       -9.22417730    0.00000000
                                      S - G
                                                     0      188.0490770        3.15780140    0.00000000
                                                     1      340.4194712       26.83225770    0.00000000
                                                     2      128.2373673      800.42500070    0.00000000
                                                     2       33.8644961      369.40506830    0.00000000
                                                     2        4.7560005      242.41718990    0.00000000
                                                     2        3.9649974     -118.21732820    0.00000000
                                      P - G
                                                     0      289.7291139        2.15780140    0.00000000
                                                     1       87.4633789       61.96786100    0.00000000
                                                     2       30.4363766      269.05819860    0.00000000
                                                     2        4.0553412      231.16547930    0.00000000
                                                     2        3.5525341     -133.69526670    0.00000000
                                      D - G
                                                     0      136.4017106        3.15780140    0.00000000
                                                     1       95.0776925       45.93498030    0.00000000
                                                     2       49.2258410      359.03446680    0.00000000
                                                     2       15.0874145      176.47401190    0.00000000
                                                     2        4.0405764       54.51552860    0.00000000
                                      F - G
                                                     0      127.3507908        3.95461970    0.00000000
                                                     1       66.2364374       52.97736550    0.00000000
                                                     2       34.4299229      274.86433830    0.00000000
                                                     2       10.1995721      137.20473380    0.00000000
                                                     2        2.5409702       14.86333050    0.00000000
   18          8
                                   No pseudopotential on this center.
   19          8
                                   No pseudopotential on this center.
   20          8
                                   No pseudopotential on this center.
   21          5
                                   No pseudopotential on this center.
   22          5
                                   No pseudopotential on this center.
   23          5
                                   No pseudopotential on this center.
   24          8
                                   No pseudopotential on this center.
   25          8
                                   No pseudopotential on this center.
   26          6
                                   No pseudopotential on this center.
   27          6
                                   No pseudopotential on this center.
   28          6
                                   No pseudopotential on this center.
   29          6
                                   No pseudopotential on this center.
   30          6
                                   No pseudopotential on this center.
   31          6
                                   No pseudopotential on this center.
   32          8
                                   No pseudopotential on this center.
   33          6
                                   No pseudopotential on this center.
   34          1
                                   No pseudopotential on this center.
   35          1
                                   No pseudopotential on this center.
   36          1
                                   No pseudopotential on this center.
   37          6
                                   No pseudopotential on this center.
   38          1
                                   No pseudopotential on this center.
   39          1
                                   No pseudopotential on this center.
   40          1
                                   No pseudopotential on this center.
   41          6
                                   No pseudopotential on this center.
   42          1
                                   No pseudopotential on this center.
   43          1
                                   No pseudopotential on this center.
   44          1
                                   No pseudopotential on this center.
   45          6
                                   No pseudopotential on this center.
   46          1
                                   No pseudopotential on this center.
   47          1
                                   No pseudopotential on this center.
   48          1
                                   No pseudopotential on this center.
   49          6
                                   No pseudopotential on this center.
   50          1
                                   No pseudopotential on this center.
   51          1
                                   No pseudopotential on this center.
   52          1
                                   No pseudopotential on this center.
   53          6
                                   No pseudopotential on this center.
   54          1
                                   No pseudopotential on this center.
   55          1
                                   No pseudopotential on this center.
   56          1
                                   No pseudopotential on this center.
   57          6
                                   No pseudopotential on this center.
   58          1
                                   No pseudopotential on this center.
   59          1
                                   No pseudopotential on this center.
   60          1
                                   No pseudopotential on this center.
   61          6
                                   No pseudopotential on this center.
   62          1
                                   No pseudopotential on this center.
   63          1
                                   No pseudopotential on this center.
   64          1
                                   No pseudopotential on this center.
   65          6
                                   No pseudopotential on this center.
   66          1
                                   No pseudopotential on this center.
   67          1
                                   No pseudopotential on this center.
   68          1
                                   No pseudopotential on this center.
   69          6
                                   No pseudopotential on this center.
   70          1
                                   No pseudopotential on this center.
   71          1
                                   No pseudopotential on this center.
   72          1
                                   No pseudopotential on this center.
   73          6
                                   No pseudopotential on this center.
   74          1
                                   No pseudopotential on this center.
   75          1
                                   No pseudopotential on this center.
   76          1
                                   No pseudopotential on this center.
   77          6
                                   No pseudopotential on this center.
   78          1
                                   No pseudopotential on this center.
   79          1
                                   No pseudopotential on this center.
   80          1
                                   No pseudopotential on this center.
   81          6
                                   No pseudopotential on this center.
   82          6
                                   No pseudopotential on this center.
   83          6
                                   No pseudopotential on this center.
   84          6
                                   No pseudopotential on this center.
   85          6
                                   No pseudopotential on this center.
   86          6
                                   No pseudopotential on this center.
   87          1
                                   No pseudopotential on this center.
   88          1
                                   No pseudopotential on this center.
   89          1
                                   No pseudopotential on this center.
   90          1
                                   No pseudopotential on this center.
   91          1
                                   No pseudopotential on this center.
   92          1
                                   No pseudopotential on this center.
   93          1
                                   No pseudopotential on this center.
   94          6
                                   No pseudopotential on this center.
   95          6
                                   No pseudopotential on this center.
   96          6
                                   No pseudopotential on this center.
   97          6
                                   No pseudopotential on this center.
   98          1
                                   No pseudopotential on this center.
   99          6
                                   No pseudopotential on this center.
  100          1
                                   No pseudopotential on this center.
  101          6
                                   No pseudopotential on this center.
  102          1
                                   No pseudopotential on this center.
  103          1
                                   No pseudopotential on this center.
  104          6
                                   No pseudopotential on this center.
  105          8
                                   No pseudopotential on this center.
  106          8
                                   No pseudopotential on this center.
  107          6
                                   No pseudopotential on this center.
  108          1
                                   No pseudopotential on this center.
  109          1
                                   No pseudopotential on this center.
  110          1
                                   No pseudopotential on this center.
  111          1
                                   No pseudopotential on this center.
  112          6
                                   No pseudopotential on this center.
  113          6
                                   No pseudopotential on this center.
  114          6
                                   No pseudopotential on this center.
  115          6
                                   No pseudopotential on this center.
  116          1
                                   No pseudopotential on this center.
  117          6
                                   No pseudopotential on this center.
  118          1
                                   No pseudopotential on this center.
  119          6
                                   No pseudopotential on this center.
  120          1
                                   No pseudopotential on this center.
  121          1
                                   No pseudopotential on this center.
  122          6
                                   No pseudopotential on this center.
  123          6
                                   No pseudopotential on this center.
  124          6
                                   No pseudopotential on this center.
  125          6
                                   No pseudopotential on this center.
  126          1
                                   No pseudopotential on this center.
  127          6
                                   No pseudopotential on this center.
  128          1
                                   No pseudopotential on this center.
  129          6
                                   No pseudopotential on this center.
  130          1
                                   No pseudopotential on this center.
  131          1
                                   No pseudopotential on this center.
  132          7
                                   No pseudopotential on this center.
  133          6
                                   No pseudopotential on this center.
  134          1
                                   No pseudopotential on this center.
  135          8
                                   No pseudopotential on this center.
  136          6
                                   No pseudopotential on this center.
  137          1
                                   No pseudopotential on this center.
  138          1
                                   No pseudopotential on this center.
  139          1
                                   No pseudopotential on this center.
  140          7
                                   No pseudopotential on this center.
  141          1
                                   No pseudopotential on this center.
 ======================================================================================================
 There are  1240 symmetry adapted cartesian basis functions of A   symmetry.
 There are  1166 symmetry adapted basis functions of A   symmetry.
  1166 basis functions,  2331 primitive gaussians,  1240 cartesian basis functions
   268 alpha electrons      268 beta electrons
       nuclear repulsion energy     12684.9660484570 Hartrees.
 NAtoms=  141 NActive=  141 NUniq=  141 SFac= 1.00D+00 NAtFMM=   60 NAOKFM=T Big=T
 Integral buffers will be    131072 words long.
 Raffenetti 2 integral format.
 Two-electron integral symmetry is turned on.
 One-electron integrals computed using PRISM.
   1 Symmetry operations used in ECPInt.
 ECPInt:  NShTT=   93528 NPrTT=  585251 LenC2=   52851 LenP2D=  159659.
 LDataN:  DoStor=T MaxTD1= 6 Len=  172
 NBasis=  1166 RedAO= T EigKep=  3.68D-04  NBF=  1166
 NBsUse=  1166 1.00D-06 EigRej= -1.00D+00 NBFU=  1166
 Defaulting to unpruned grid for atomic number  77.
 ExpMin= 2.90D-02 ExpMax= 5.48D+03 ExpMxC= 8.25D+02 IAcc=3 IRadAn=         5 AccDes= 0.00D+00
 Harris functional with IExCor= 1009 and IRadAn=       5 diagonalized for initial guess.
 HarFok:  IExCor= 1009 AccDes= 0.00D+00 IRadAn=         5 IDoV= 1 UseB2=F ITyADJ=14
 ICtDFT=  3500011 ScaDFX=  1.000000  1.000000  1.000000  1.000000
 Defaulting to unpruned grid for atomic number  77.
 FoFCou: FMM=F IPFlag=           0 FMFlag=      100000 FMFlg1=        2001
         NFxFlg=           0 DoJE=T BraDBF=F KetDBF=T FulRan=T
         wScrn=  0.000000 ICntrl=       500 IOpCl=  0 I1Cent=   200000004 NGrid=           0
         NMat0=    1 NMatS0=      1 NMatT0=    0 NMatD0=    1 NMtDS0=    0 NMtDT0=    0
 Petite list used in FoFCou.
 Requested convergence on RMS density matrix=1.00D-08 within 128 cycles.
 Requested convergence on MAX density matrix=1.00D-06.
 Requested convergence on             energy=1.00D-06.
 No special actions if energy rises.
 Defaulting to unpruned grid for atomic number  77.
 Defaulting to unpruned grid for atomic number  77.
 Defaulting to unpruned grid for atomic number  77.
 Defaulting to unpruned grid for atomic number  77.
 Defaulting to unpruned grid for atomic number  77.
 Defaulting to unpruned grid for atomic number  77.
 Defaulting to unpruned grid for atomic number  77.
 Defaulting to unpruned grid for atomic number  77.
 Defaulting to unpruned grid for atomic number  77.
 Defaulting to unpruned grid for atomic number  77.
 Defaulting to unpruned grid for atomic number  77.
 Defaulting to unpruned grid for atomic number  77.
 Defaulting to unpruned grid for atomic number  77.
 Defaulting to unpruned grid for atomic number  77.
 Defaulting to unpruned grid for atomic number  77.
 Defaulting to unpruned grid for atomic number  77.
 SCF Done:  E(RM06) =  -3248.41541912     A.U. after   15 cycles
            NFock= 15  Conv=0.84D-08     -V/T= 2.0290
 DoSCS=F DFT=T ScalE2(SS,OS)=  1.000000  1.000000
 Range of M.O.s used for correlation:     1  1166
 NBasis=  1166 NAE=   268 NBE=   268 NFC=     0 NFV=     0
 NROrb=   1166 NOA=   268 NOB=   268 NVA=   898 NVB=   898

 **** Warning!!: The largest alpha MO coefficient is  0.12287926D+02

   1 Symmetry operations used in ECPInt.
 ECPInt:  NShTT=   93528 NPrTT=  585251 LenC2=   52851 LenP2D=  159659.
 LDataN:  DoStor=T MaxTD1= 7 Len=  274
 Number of processors reduced to   5 by ecpmxn.
 Symmetrizing basis deriv contribution to polar:
 IMax=3 JMax=2 DiffMx= 0.00D+00
 G2DrvN: will do   142 centers at a time, making    1 passes.
 Calling FoFCou, ICntrl=  3107 FMM=T I1Cent=   0 AccDes= 0.00D+00.
 Defaulting to unpruned grid for atomic number  77.
 Defaulting to unpruned grid for atomic number  77.
 Defaulting to unpruned grid for atomic number  77.
 Defaulting to unpruned grid for atomic number  77.
 Defaulting to unpruned grid for atomic number  77.
 Defaulting to unpruned grid for atomic number  77.
 Defaulting to unpruned grid for atomic number  77.
 Defaulting to unpruned grid for atomic number  77.
 Defaulting to unpruned grid for atomic number  77.
 Defaulting to unpruned grid for atomic number  77.
 Defaulting to unpruned grid for atomic number  77.
 Defaulting to unpruned grid for atomic number  77.
 Defaulting to unpruned grid for atomic number  77.
 Defaulting to unpruned grid for atomic number  77.
 Defaulting to unpruned grid for atomic number  77.
 Defaulting to unpruned grid for atomic number  77.
 End of G2Drv F.D. properties file   721 does not exist.
 End of G2Drv F.D. properties file   722 does not exist.
 End of G2Drv F.D. properties file   788 does not exist.
          IDoAtm=11111111111111111111111111111111111111111111111111
          IDoAtm=11111111111111111111111111111111111111111111111111
          IDoAtm=11111111111111111111111111111111111111111
          Differentiating once with respect to electric field.
                with respect to dipole field.
          Differentiating once with respect to nuclear coordinates.
 Defaulting to unpruned grid for atomic number  77.
 CalDSu exits because no D1Ps are significant.
 Defaulting to unpruned grid for atomic number  77.
 Defaulting to unpruned grid for atomic number  77.
 Defaulting to unpruned grid for atomic number  77.
 Defaulting to unpruned grid for atomic number  77.
 Defaulting to unpruned grid for atomic number  77.
 Defaulting to unpruned grid for atomic number  77.
 Defaulting to unpruned grid for atomic number  77.
 Defaulting to unpruned grid for atomic number  77.
 Defaulting to unpruned grid for atomic number  77.
 Defaulting to unpruned grid for atomic number  77.
 Defaulting to unpruned grid for atomic number  77.
 Defaulting to unpruned grid for atomic number  77.
 Defaulting to unpruned grid for atomic number  77.
 Defaulting to unpruned grid for atomic number  77.
 Defaulting to unpruned grid for atomic number  77.
 Defaulting to unpruned grid for atomic number  77.
          There are   426 degrees of freedom in the 1st order CPHF.  IDoFFX=6 NUNeed=     3.
    423 vectors produced by pass  0 Test12= 2.41D-13 1.00D-09 XBig12= 1.01D+03 1.21D+01.
 AX will form    72 AO Fock derivatives at one time.
    423 vectors produced by pass  1 Test12= 2.41D-13 1.00D-09 XBig12= 1.26D+02 1.06D+00.
    423 vectors produced by pass  2 Test12= 2.41D-13 1.00D-09 XBig12= 1.48D+00 8.85D-02.
    423 vectors produced by pass  3 Test12= 2.41D-13 1.00D-09 XBig12= 8.51D-03 5.66D-03.
    423 vectors produced by pass  4 Test12= 2.41D-13 1.00D-09 XBig12= 2.64D-05 2.42D-04.
    394 vectors produced by pass  5 Test12= 2.41D-13 1.00D-09 XBig12= 5.50D-08 1.18D-05.
    121 vectors produced by pass  6 Test12= 2.41D-13 1.00D-09 XBig12= 7.85D-11 5.69D-07.
      3 vectors produced by pass  7 Test12= 2.41D-13 1.00D-09 XBig12= 1.12D-13 2.14D-08.
      1 vectors produced by pass  8 Test12= 2.41D-13 1.00D-09 XBig12= 1.30D-16 1.28D-09.
 InvSVY:  IOpt=1 It=  1 EMax= 2.13D-14
 Solved reduced A of dimension  2634 with   426 vectors.
 Isotropic polarizability for W=    0.000000      779.36 Bohr**3.
 End of Minotr F.D. properties file   721 does not exist.
 End of Minotr F.D. properties file   722 does not exist.
 End of Minotr F.D. properties file   788 does not exist.
 Hyperfine terms turned off by default for NAtoms > 100.

 **********************************************************************

            Population analysis using the SCF Density.

 **********************************************************************

 Orbital symmetries:
       Occupied  (A) (A) (A) (A) (A) (A) (A) (A) (A) (A) (A) (A)
                 (A) (A) (A) (A) (A) (A) (A) (A) (A) (A) (A) (A)
                 (A) (A) (A) (A) (A) (A) (A) (A) (A) (A) (A) (A)
                 (A) (A) (A) (A) (A) (A) (A) (A) (A) (A) (A) (A)
                 (A) (A) (A) (A) (A) (A) (A) (A) (A) (A) (A) (A)
                 (A) (A) (A) (A) (A) (A) (A) (A) (A) (A) (A) (A)
                 (A) (A) (A) (A) (A) (A) (A) (A) (A) (A) (A) (A)
                 (A) (A) (A) (A) (A) (A) (A) (A) (A) (A) (A) (A)
                 (A) (A) (A) (A) (A) (A) (A) (A) (A) (A) (A) (A)
                 (A) (A) (A) (A) (A) (A) (A) (A) (A) (A) (A) (A)
                 (A) (A) (A) (A) (A) (A) (A) (A) (A) (A) (A) (A)
                 (A) (A) (A) (A) (A) (A) (A) (A) (A) (A) (A) (A)
                 (A) (A) (A) (A) (A) (A) (A) (A) (A) (A) (A) (A)
                 (A) (A) (A) (A) (A) (A) (A) (A) (A) (A) (A) (A)
                 (A) (A) (A) (A) (A) (A) (A) (A) (A) (A) (A) (A)
                 (A) (A) (A) (A) (A) (A) (A) (A) (A) (A) (A) (A)
                 (A) (A) (A) (A) (A) (A) (A) (A) (A) (A) (A) (A)
                 (A) (A) (A) (A) (A) (A) (A) (A) (A) (A) (A) (A)
                 (A) (A) (A) (A) (A) (A) (A) (A) (A) (A) (A) (A)
                 (A) (A) (A) (A) (A) (A) (A) (A) (A) (A) (A) (A)
                 (A) (A) (A) (A) (A) (A) (A) (A) (A) (A) (A) (A)
                 (A) (A) (A) (A) (A) (A) (A) (A) (A) (A) (A) (A)
                 (A) (A) (A) (A)
       Virtual   (A) (A) (A) (A) (A) (A) (A) (A) (A) (A) (A) (A)
                 (A) (A) (A) (A) (A) (A) (A) (A) (A) (A) (A) (A)
                 (A) (A) (A) (A) (A) (A) (A) (A) (A) (A) (A) (A)
                 (A) (A) (A) (A) (A) (A) (A) (A) (A) (A) (A) (A)
                 (A) (A) (A) (A) (A) (A) (A) (A) (A) (A) (A) (A)
                 (A) (A) (A) (A) (A) (A) (A) (A) (A) (A) (A) (A)
                 (A) (A) (A) (A) (A) (A) (A) (A) (A) (A) (A) (A)
                 (A) (A) (A) (A) (A) (A) (A) (A) (A) (A) (A) (A)
                 (A) (A) (A) (A) (A) (A) (A) (A) (A) (A) (A) (A)
                 (A) (A) (A) (A) (A) (A) (A) (A) (A) (A) (A) (A)
                 (A) (A) (A) (A) (A) (A) (A) (A) (A) (A) (A) (A)
                 (A) (A) (A) (A) (A) (A) (A) (A) (A) (A) (A) (A)
                 (A) (A) (A) (A) (A) (A) (A) (A) (A) (A) (A) (A)
                 (A) (A) (A) (A) (A) (A) (A) (A) (A) (A) (A) (A)
                 (A) (A) (A) (A) (A) (A) (A) (A) (A) (A) (A) (A)
                 (A) (A) (A) (A) (A) (A) (A) (A) (A) (A) (A) (A)
                 (A) (A) (A) (A) (A) (A) (A) (A) (A) (A) (A) (A)
                 (A) (A) (A) (A) (A) (A) (A) (A) (A) (A) (A) (A)
                 (A) (A) (A) (A) (A) (A) (A) (A) (A) (A) (A) (A)
                 (A) (A) (A) (A) (A) (A) (A) (A) (A) (A) (A) (A)
                 (A) (A) (A) (A) (A) (A) (A) (A) (A) (A) (A) (A)
                 (A) (A) (A) (A) (A) (A) (A) (A) (A) (A) (A) (A)
                 (A) (A) (A) (A) (A) (A) (A) (A) (A) (A) (A) (A)
                 (A) (A) (A) (A) (A) (A) (A) (A) (A) (A) (A) (A)
                 (A) (A) (A) (A) (A) (A) (A) (A) (A) (A) (A) (A)
                 (A) (A) (A) (A) (A) (A) (A) (A) (A) (A) (A) (A)
                 (A) (A) (A) (A) (A) (A) (A) (A) (A) (A) (A) (A)
                 (A) (A) (A) (A) (A) (A) (A) (A) (A) (A) (A) (A)
                 (A) (A) (A) (A) (A) (A) (A) (A) (A) (A) (A) (A)
                 (A) (A) (A) (A) (A) (A) (A) (A) (A) (A) (A) (A)
                 (A) (A) (A) (A) (A) (A) (A) (A) (A) (A) (A) (A)
                 (A) (A) (A) (A) (A) (A) (A) (A) (A) (A) (A) (A)
                 (A) (A) (A) (A) (A) (A) (A) (A) (A) (A) (A) (A)
                 (A) (A) (A) (A) (A) (A) (A) (A) (A) (A) (A) (A)
                 (A) (A) (A) (A) (A) (A) (A) (A) (A) (A) (A) (A)
                 (A) (A) (A) (A) (A) (A) (A) (A) (A) (A) (A) (A)
                 (A) (A) (A) (A) (A) (A) (A) (A) (A) (A) (A) (A)
                 (A) (A) (A) (A) (A) (A) (A) (A) (A) (A) (A) (A)
                 (A) (A) (A) (A) (A) (A) (A) (A) (A) (A) (A) (A)
                 (A) (A) (A) (A) (A) (A) (A) (A) (A) (A) (A) (A)
                 (A) (A) (A) (A) (A) (A) (A) (A) (A) (A) (A) (A)
                 (A) (A) (A) (A) (A) (A) (A) (A) (A) (A) (A) (A)
                 (A) (A) (A) (A) (A) (A) (A) (A) (A) (A) (A) (A)
                 (A) (A) (A) (A) (A) (A) (A) (A) (A) (A) (A) (A)
                 (A) (A) (A) (A) (A) (A) (A) (A) (A) (A) (A) (A)
                 (A) (A) (A) (A) (A) (A) (A) (A) (A) (A) (A) (A)
                 (A) (A) (A) (A) (A) (A) (A) (A) (A) (A) (A) (A)
                 (A) (A) (A) (A) (A) (A) (A) (A) (A) (A) (A) (A)
                 (A) (A) (A) (A) (A) (A) (A) (A) (A) (A) (A) (A)
                 (A) (A) (A) (A) (A) (A) (A) (A) (A) (A) (A) (A)
                 (A) (A) (A) (A) (A) (A) (A) (A) (A) (A) (A) (A)
                 (A) (A) (A) (A) (A) (A) (A) (A) (A) (A) (A) (A)
                 (A) (A) (A) (A) (A) (A) (A) (A) (A) (A) (A) (A)
                 (A) (A) (A) (A) (A) (A) (A) (A) (A) (A) (A) (A)
                 (A) (A) (A) (A) (A) (A) (A) (A) (A) (A) (A) (A)
                 (A) (A) (A) (A) (A) (A) (A) (A) (A) (A) (A) (A)
                 (A) (A) (A) (A) (A) (A) (A) (A) (A) (A) (A) (A)
                 (A) (A) (A) (A) (A) (A) (A) (A) (A) (A) (A) (A)
                 (A) (A) (A) (A) (A) (A) (A) (A) (A) (A) (A) (A)
                 (A) (A) (A) (A) (A) (A) (A) (A) (A) (A) (A) (A)
                 (A) (A) (A) (A) (A) (A) (A) (A) (A) (A) (A) (A)
                 (A) (A) (A) (A) (A) (A) (A) (A) (A) (A) (A) (A)
                 (A) (A) (A) (A) (A) (A) (A) (A) (A) (A) (A) (A)
                 (A) (A) (A) (A) (A) (A) (A) (A) (A) (A) (A) (A)
                 (A) (A) (A) (A) (A) (A) (A) (A) (A) (A) (A) (A)
                 (A) (A) (A) (A) (A) (A) (A) (A) (A) (A) (A) (A)
                 (A) (A) (A) (A) (A) (A) (A) (A) (A) (A) (A) (A)
                 (A) (A) (A) (A) (A) (A) (A) (A) (A) (A) (A) (A)
                 (A) (A) (A) (A) (A) (A) (A) (A) (A) (A) (A) (A)
                 (A) (A) (A) (A) (A) (A) (A) (A) (A) (A) (A) (A)
                 (A) (A) (A) (A) (A) (A) (A) (A) (A) (A) (A) (A)
                 (A) (A) (A) (A) (A) (A) (A) (A) (A) (A) (A) (A)
                 (A) (A) (A) (A) (A) (A) (A) (A) (A) (A) (A) (A)
                 (A) (A) (A) (A) (A) (A) (A) (A) (A) (A) (A) (A)
                 (A) (A) (A) (A) (A) (A) (A) (A) (A) (A)
 The electronic state is 1-A.
 Alpha  occ. eigenvalues --  -19.29240 -19.23802 -19.20398 -19.20311 -19.20292
 Alpha  occ. eigenvalues --  -19.20028 -19.19993 -19.19129 -19.17672 -14.45090
 Alpha  occ. eigenvalues --  -14.43456 -14.41931 -14.40538 -10.40242 -10.36467
 Alpha  occ. eigenvalues --  -10.32046 -10.31617 -10.31499 -10.30012 -10.29656
 Alpha  occ. eigenvalues --  -10.29448 -10.29260 -10.29249 -10.29234 -10.29213
 Alpha  occ. eigenvalues --  -10.29122 -10.29040 -10.28980 -10.28584 -10.28224
 Alpha  occ. eigenvalues --  -10.27714 -10.27536 -10.27321 -10.27130 -10.27101
 Alpha  occ. eigenvalues --  -10.26823 -10.26634 -10.26575 -10.26269 -10.26229
 Alpha  occ. eigenvalues --  -10.25937 -10.25889 -10.25680 -10.25657 -10.25530
 Alpha  occ. eigenvalues --  -10.25521 -10.25051 -10.25040 -10.24948 -10.24704
 Alpha  occ. eigenvalues --  -10.24605 -10.24504 -10.24146 -10.24111 -10.23446
 Alpha  occ. eigenvalues --  -10.23433 -10.23401 -10.23013 -10.22917 -10.22844
 Alpha  occ. eigenvalues --  -10.22790 -10.22726 -10.22564 -10.22309 -10.22224
 Alpha  occ. eigenvalues --  -10.22211 -10.21946 -10.21891 -10.21201  -6.80524
 Alpha  occ. eigenvalues --   -6.79696  -6.78966  -3.63221  -2.05716  -2.05567
 Alpha  occ. eigenvalues --   -2.04156  -1.14981  -1.06327  -1.06109  -1.05762
 Alpha  occ. eigenvalues --   -1.05628  -1.05153  -0.99772  -0.99281  -0.99224
 Alpha  occ. eigenvalues --   -0.98622  -0.97207  -0.94768  -0.91537  -0.88922
 Alpha  occ. eigenvalues --   -0.88640  -0.85892  -0.85341  -0.84155  -0.83603
 Alpha  occ. eigenvalues --   -0.82539  -0.80498  -0.80336  -0.80264  -0.79876
 Alpha  occ. eigenvalues --   -0.78587  -0.77147  -0.76854  -0.76385  -0.75909
 Alpha  occ. eigenvalues --   -0.75177  -0.74943  -0.74746  -0.74328  -0.74113
 Alpha  occ. eigenvalues --   -0.73636  -0.72412  -0.70558  -0.70192  -0.69941
 Alpha  occ. eigenvalues --   -0.69495  -0.68658  -0.67785  -0.67736  -0.67490
 Alpha  occ. eigenvalues --   -0.67144  -0.65292  -0.65178  -0.64305  -0.63569
 Alpha  occ. eigenvalues --   -0.63095  -0.62279  -0.61896  -0.61315  -0.60975
 Alpha  occ. eigenvalues --   -0.60922  -0.60008  -0.59285  -0.59176  -0.58083
 Alpha  occ. eigenvalues --   -0.57835  -0.56349  -0.55924  -0.54949  -0.54718
 Alpha  occ. eigenvalues --   -0.54642  -0.54232  -0.54004  -0.53812  -0.53512
 Alpha  occ. eigenvalues --   -0.53072  -0.53021  -0.52714  -0.52049  -0.51584
 Alpha  occ. eigenvalues --   -0.51445  -0.50815  -0.50477  -0.50069  -0.48795
 Alpha  occ. eigenvalues --   -0.47997  -0.47726  -0.47322  -0.47196  -0.47061
 Alpha  occ. eigenvalues --   -0.46887  -0.46715  -0.46504  -0.46286  -0.46245
 Alpha  occ. eigenvalues --   -0.46144  -0.45834  -0.45759  -0.45684  -0.45380
 Alpha  occ. eigenvalues --   -0.45052  -0.44655  -0.44544  -0.44324  -0.44293
 Alpha  occ. eigenvalues --   -0.44045  -0.43967  -0.43953  -0.43677  -0.43596
 Alpha  occ. eigenvalues --   -0.43552  -0.43369  -0.43331  -0.43223  -0.43082
 Alpha  occ. eigenvalues --   -0.42966  -0.42434  -0.42191  -0.41684  -0.41126
 Alpha  occ. eigenvalues --   -0.40955  -0.40784  -0.40298  -0.40225  -0.39994
 Alpha  occ. eigenvalues --   -0.39839  -0.39746  -0.39674  -0.39536  -0.39503
 Alpha  occ. eigenvalues --   -0.39409  -0.39231  -0.39161  -0.39104  -0.39052
 Alpha  occ. eigenvalues --   -0.38803  -0.38717  -0.38556  -0.38477  -0.38316
 Alpha  occ. eigenvalues --   -0.37856  -0.37626  -0.37468  -0.37192  -0.37029
 Alpha  occ. eigenvalues --   -0.36985  -0.36713  -0.36622  -0.36468  -0.36230
 Alpha  occ. eigenvalues --   -0.36021  -0.35990  -0.35801  -0.35750  -0.35601
 Alpha  occ. eigenvalues --   -0.35437  -0.34998  -0.34899  -0.34829  -0.34485
 Alpha  occ. eigenvalues --   -0.34281  -0.34125  -0.33929  -0.33608  -0.33082
 Alpha  occ. eigenvalues --   -0.32760  -0.32379  -0.32216  -0.31888  -0.31742
 Alpha  occ. eigenvalues --   -0.31628  -0.31541  -0.31375  -0.31142  -0.30947
 Alpha  occ. eigenvalues --   -0.30423  -0.30099  -0.29947  -0.29718  -0.28243
 Alpha  occ. eigenvalues --   -0.27231  -0.27038  -0.26985  -0.26725  -0.26565
 Alpha  occ. eigenvalues --   -0.26418  -0.26284  -0.25843  -0.25703  -0.25689
 Alpha  occ. eigenvalues --   -0.25204  -0.24958  -0.24794  -0.22915  -0.22263
 Alpha  occ. eigenvalues --   -0.21963  -0.20901  -0.20750
 Alpha virt. eigenvalues --   -0.06739  -0.05514  -0.04059  -0.03470  -0.02107
 Alpha virt. eigenvalues --   -0.00539   0.00232   0.00747   0.01103   0.01731
 Alpha virt. eigenvalues --    0.01794   0.03396   0.03829   0.04787   0.05898
 Alpha virt. eigenvalues --    0.06417   0.07007   0.07129   0.07545   0.08834
 Alpha virt. eigenvalues --    0.08961   0.09350   0.09505   0.09618   0.10217
 Alpha virt. eigenvalues --    0.10289   0.10772   0.10918   0.11200   0.11467
 Alpha virt. eigenvalues --    0.11776   0.11878   0.12055   0.12121   0.12591
 Alpha virt. eigenvalues --    0.12814   0.13127   0.13196   0.13699   0.13765
 Alpha virt. eigenvalues --    0.13912   0.14077   0.14246   0.14563   0.14748
 Alpha virt. eigenvalues --    0.14905   0.15009   0.15217   0.15237   0.15420
 Alpha virt. eigenvalues --    0.15605   0.15655   0.15747   0.15964   0.16141
 Alpha virt. eigenvalues --    0.16221   0.16409   0.16489   0.16567   0.16808
 Alpha virt. eigenvalues --    0.17015   0.17215   0.17292   0.17508   0.17667
 Alpha virt. eigenvalues --    0.17773   0.17875   0.18080   0.18217   0.18477
 Alpha virt. eigenvalues --    0.18625   0.18732   0.18912   0.18935   0.18996
 Alpha virt. eigenvalues --    0.19373   0.19461   0.19569   0.19706   0.19779
 Alpha virt. eigenvalues --    0.20091   0.20205   0.20337   0.20502   0.20653
 Alpha virt. eigenvalues --    0.20849   0.21002   0.21154   0.21302   0.21428
 Alpha virt. eigenvalues --    0.21642   0.22022   0.22371   0.22441   0.22926
 Alpha virt. eigenvalues --    0.23178   0.23347   0.23853   0.24168   0.24305
 Alpha virt. eigenvalues --    0.24374   0.24389   0.24711   0.24973   0.25429
 Alpha virt. eigenvalues --    0.25546   0.25699   0.25812   0.25934   0.26093
 Alpha virt. eigenvalues --    0.26226   0.26417   0.26713   0.27003   0.27123
 Alpha virt. eigenvalues --    0.27155   0.27542   0.27899   0.27949   0.28257
 Alpha virt. eigenvalues --    0.28551   0.28616   0.28740   0.28977   0.29331
 Alpha virt. eigenvalues --    0.29994   0.30262   0.30354   0.30637   0.31029
 Alpha virt. eigenvalues --    0.31236   0.31537   0.31599   0.32062   0.32381
 Alpha virt. eigenvalues --    0.32800   0.33231   0.33563   0.33576   0.33972
 Alpha virt. eigenvalues --    0.34437   0.34808   0.35090   0.35489   0.35809
 Alpha virt. eigenvalues --    0.35980   0.36191   0.36548   0.36706   0.37596
 Alpha virt. eigenvalues --    0.38434   0.38778   0.39296   0.39842   0.39977
 Alpha virt. eigenvalues --    0.41104   0.41287   0.41538   0.41822   0.42438
 Alpha virt. eigenvalues --    0.42984   0.44383   0.44937   0.46076   0.46131
 Alpha virt. eigenvalues --    0.46969   0.47803   0.48247   0.48844   0.49192
 Alpha virt. eigenvalues --    0.49244   0.49574   0.49931   0.50148   0.50590
 Alpha virt. eigenvalues --    0.50733   0.50963   0.51102   0.51404   0.51589
 Alpha virt. eigenvalues --    0.51759   0.51939   0.52073   0.52227   0.52525
 Alpha virt. eigenvalues --    0.52820   0.53023   0.53049   0.53417   0.53547
 Alpha virt. eigenvalues --    0.54143   0.54290   0.54629   0.54828   0.54924
 Alpha virt. eigenvalues --    0.55246   0.55479   0.55736   0.55843   0.55901
 Alpha virt. eigenvalues --    0.56279   0.56387   0.56488   0.56695   0.56790
 Alpha virt. eigenvalues --    0.57096   0.57403   0.57429   0.57594   0.57730
 Alpha virt. eigenvalues --    0.57875   0.57937   0.58114   0.58306   0.58397
 Alpha virt. eigenvalues --    0.58634   0.58721   0.58756   0.58851   0.59052
 Alpha virt. eigenvalues --    0.59138   0.59253   0.59407   0.59515   0.59787
 Alpha virt. eigenvalues --    0.59895   0.60110   0.60245   0.60275   0.60638
 Alpha virt. eigenvalues --    0.60855   0.60906   0.61162   0.61235   0.61458
 Alpha virt. eigenvalues --    0.61586   0.61852   0.62079   0.62459   0.62752
 Alpha virt. eigenvalues --    0.62799   0.63124   0.63163   0.63679   0.63995
 Alpha virt. eigenvalues --    0.64033   0.64161   0.64417   0.64533   0.64732
 Alpha virt. eigenvalues --    0.64969   0.65170   0.65404   0.65633   0.66054
 Alpha virt. eigenvalues --    0.66206   0.66549   0.66808   0.66888   0.67120
 Alpha virt. eigenvalues --    0.67436   0.67549   0.67687   0.67777   0.68216
 Alpha virt. eigenvalues --    0.68414   0.68534   0.68792   0.69035   0.69361
 Alpha virt. eigenvalues --    0.69593   0.70007   0.70059   0.70512   0.70662
 Alpha virt. eigenvalues --    0.71016   0.71142   0.71747   0.72040   0.72409
 Alpha virt. eigenvalues --    0.72503   0.72588   0.72747   0.73278   0.73536
 Alpha virt. eigenvalues --    0.73686   0.74120   0.74347   0.74495   0.74758
 Alpha virt. eigenvalues --    0.74996   0.75525   0.75751   0.76136   0.76481
 Alpha virt. eigenvalues --    0.76794   0.77016   0.77229   0.77462   0.77902
 Alpha virt. eigenvalues --    0.78007   0.78291   0.78461   0.78645   0.78825
 Alpha virt. eigenvalues --    0.79182   0.79349   0.79370   0.79786   0.79927
 Alpha virt. eigenvalues --    0.80002   0.80363   0.80527   0.80728   0.80777
 Alpha virt. eigenvalues --    0.81037   0.81229   0.81580   0.81610   0.81878
 Alpha virt. eigenvalues --    0.82248   0.82657   0.82945   0.83093   0.83357
 Alpha virt. eigenvalues --    0.83523   0.83586   0.83804   0.84208   0.84263
 Alpha virt. eigenvalues --    0.84303   0.84466   0.84722   0.84864   0.84973
 Alpha virt. eigenvalues --    0.85127   0.85286   0.85525   0.85932   0.85964
 Alpha virt. eigenvalues --    0.86064   0.86245   0.86600   0.86712   0.86962
 Alpha virt. eigenvalues --    0.87222   0.87699   0.87820   0.88046   0.88121
 Alpha virt. eigenvalues --    0.88485   0.88663   0.88949   0.89005   0.89294
 Alpha virt. eigenvalues --    0.89520   0.89887   0.90036   0.90132   0.90260
 Alpha virt. eigenvalues --    0.90438   0.90640   0.90956   0.91024   0.91394
 Alpha virt. eigenvalues --    0.91541   0.91780   0.91970   0.91982   0.92239
 Alpha virt. eigenvalues --    0.92490   0.92744   0.92875   0.93325   0.93550
 Alpha virt. eigenvalues --    0.93877   0.94162   0.94344   0.94734   0.94915
 Alpha virt. eigenvalues --    0.95473   0.95679   0.95747   0.96079   0.96194
 Alpha virt. eigenvalues --    0.96331   0.96478   0.96578   0.96950   0.97098
 Alpha virt. eigenvalues --    0.97568   0.97709   0.97773   0.98092   0.98270
 Alpha virt. eigenvalues --    0.98406   0.98827   0.99056   0.99402   0.99573
 Alpha virt. eigenvalues --    1.00202   1.00414   1.00736   1.00880   1.01105
 Alpha virt. eigenvalues --    1.01516   1.01775   1.02234   1.02459   1.03358
 Alpha virt. eigenvalues --    1.03632   1.03841   1.04147   1.04620   1.04871
 Alpha virt. eigenvalues --    1.05321   1.05364   1.05805   1.06427   1.06736
 Alpha virt. eigenvalues --    1.06905   1.07523   1.07843   1.08147   1.08613
 Alpha virt. eigenvalues --    1.08783   1.09155   1.09402   1.09906   1.10611
 Alpha virt. eigenvalues --    1.10773   1.11375   1.11845   1.12194   1.12398
 Alpha virt. eigenvalues --    1.12831   1.12867   1.13292   1.13769   1.13877
 Alpha virt. eigenvalues --    1.14474   1.14840   1.15099   1.15727   1.16511
 Alpha virt. eigenvalues --    1.16766   1.16971   1.17095   1.17524   1.17846
 Alpha virt. eigenvalues --    1.17929   1.18202   1.18565   1.19200   1.19426
 Alpha virt. eigenvalues --    1.19733   1.20068   1.20297   1.20489   1.21360
 Alpha virt. eigenvalues --    1.21977   1.22378   1.22874   1.23082   1.23430
 Alpha virt. eigenvalues --    1.24125   1.24774   1.25416   1.25678   1.26184
 Alpha virt. eigenvalues --    1.26518   1.26829   1.27420   1.27677   1.28010
 Alpha virt. eigenvalues --    1.28648   1.28853   1.29108   1.29253   1.29984
 Alpha virt. eigenvalues --    1.30230   1.30689   1.31097   1.31344   1.31913
 Alpha virt. eigenvalues --    1.32127   1.32434   1.32612   1.33472   1.33659
 Alpha virt. eigenvalues --    1.34453   1.34471   1.35044   1.35761   1.35981
 Alpha virt. eigenvalues --    1.36530   1.37066   1.37342   1.37510   1.38404
 Alpha virt. eigenvalues --    1.38569   1.38998   1.39273   1.39954   1.40751
 Alpha virt. eigenvalues --    1.40875   1.41293   1.41607   1.41925   1.42281
 Alpha virt. eigenvalues --    1.42754   1.42927   1.43421   1.43569   1.44494
 Alpha virt. eigenvalues --    1.44713   1.45175   1.45321   1.45619   1.45900
 Alpha virt. eigenvalues --    1.46194   1.46444   1.47009   1.47107   1.47859
 Alpha virt. eigenvalues --    1.47993   1.48193   1.48396   1.48665   1.49044
 Alpha virt. eigenvalues --    1.49214   1.49283   1.49545   1.49658   1.50007
 Alpha virt. eigenvalues --    1.50122   1.50366   1.50770   1.51492   1.51660
 Alpha virt. eigenvalues --    1.51970   1.52374   1.52499   1.52812   1.53944
 Alpha virt. eigenvalues --    1.54706   1.55194   1.55569   1.55900   1.56314
 Alpha virt. eigenvalues --    1.56978   1.58247   1.58441   1.58853   1.59811
 Alpha virt. eigenvalues --    1.61688   1.62044   1.62835   1.63345   1.63822
 Alpha virt. eigenvalues --    1.64138   1.64606   1.65441   1.65650   1.66071
 Alpha virt. eigenvalues --    1.66846   1.67408   1.67568   1.68364   1.68728
 Alpha virt. eigenvalues --    1.69003   1.69920   1.70520   1.70999   1.71529
 Alpha virt. eigenvalues --    1.71923   1.72345   1.72895   1.73173   1.74200
 Alpha virt. eigenvalues --    1.74264   1.75336   1.75670   1.75969   1.76603
 Alpha virt. eigenvalues --    1.76765   1.77174   1.77381   1.77675   1.78065
 Alpha virt. eigenvalues --    1.78239   1.78370   1.78894   1.79193   1.79470
 Alpha virt. eigenvalues --    1.80006   1.80564   1.80864   1.81243   1.81469
 Alpha virt. eigenvalues --    1.81816   1.82087   1.82265   1.82459   1.83151
 Alpha virt. eigenvalues --    1.83319   1.83692   1.84052   1.84548   1.84692
 Alpha virt. eigenvalues --    1.85312   1.85407   1.85513   1.85852   1.86079
 Alpha virt. eigenvalues --    1.86514   1.86773   1.86928   1.87061   1.87471
 Alpha virt. eigenvalues --    1.87948   1.88510   1.88725   1.88770   1.89263
 Alpha virt. eigenvalues --    1.89400   1.89696   1.89770   1.90283   1.90659
 Alpha virt. eigenvalues --    1.91031   1.91274   1.91448   1.91632   1.91827
 Alpha virt. eigenvalues --    1.92153   1.92301   1.92549   1.93015   1.93060
 Alpha virt. eigenvalues --    1.93097   1.93461   1.93644   1.93925   1.94022
 Alpha virt. eigenvalues --    1.94328   1.95038   1.95623   1.95878   1.97043
 Alpha virt. eigenvalues --    1.97118   1.97520   1.97946   1.98221   1.98569
 Alpha virt. eigenvalues --    1.98806   1.99582   2.00426   2.00838   2.01326
 Alpha virt. eigenvalues --    2.01664   2.02337   2.02416   2.02606   2.02770
 Alpha virt. eigenvalues --    2.02908   2.03307   2.03448   2.03576   2.04259
 Alpha virt. eigenvalues --    2.04636   2.05226   2.05284   2.05590   2.06120
 Alpha virt. eigenvalues --    2.06301   2.06599   2.06887   2.07291   2.07403
 Alpha virt. eigenvalues --    2.07697   2.07945   2.08199   2.08472   2.08578
 Alpha virt. eigenvalues --    2.08948   2.09080   2.09473   2.09625   2.10467
 Alpha virt. eigenvalues --    2.10624   2.10974   2.11216   2.11383   2.11599
 Alpha virt. eigenvalues --    2.12061   2.12204   2.12748   2.13013   2.13259
 Alpha virt. eigenvalues --    2.13534   2.13953   2.14440   2.14762   2.15001
 Alpha virt. eigenvalues --    2.15061   2.15453   2.15829   2.16209   2.16355
 Alpha virt. eigenvalues --    2.16539   2.16951   2.17688   2.17975   2.18534
 Alpha virt. eigenvalues --    2.18690   2.18817   2.18941   2.19290   2.19443
 Alpha virt. eigenvalues --    2.19695   2.19801   2.20406   2.20831   2.21082
 Alpha virt. eigenvalues --    2.21290   2.21910   2.21946   2.22304   2.22454
 Alpha virt. eigenvalues --    2.23140   2.23432   2.23614   2.23733   2.24073
 Alpha virt. eigenvalues --    2.24337   2.24650   2.25124   2.25618   2.26136
 Alpha virt. eigenvalues --    2.26395   2.26611   2.26863   2.27156   2.27269
 Alpha virt. eigenvalues --    2.27624   2.27764   2.28001   2.28055   2.28588
 Alpha virt. eigenvalues --    2.29074   2.29304   2.29989   2.30281   2.30732
 Alpha virt. eigenvalues --    2.31013   2.31286   2.31709   2.31769   2.32203
 Alpha virt. eigenvalues --    2.32404   2.32956   2.33142   2.33558   2.33635
 Alpha virt. eigenvalues --    2.34303   2.34700   2.34723   2.35130   2.35923
 Alpha virt. eigenvalues --    2.36637   2.37160   2.37433   2.38458   2.38994
 Alpha virt. eigenvalues --    2.39259   2.39621   2.40473   2.41251   2.42392
 Alpha virt. eigenvalues --    2.42690   2.43575   2.44095   2.44347   2.45663
 Alpha virt. eigenvalues --    2.46972   2.47832   2.47963   2.48296   2.49121
 Alpha virt. eigenvalues --    2.49152   2.49396   2.49447   2.49781   2.50433
 Alpha virt. eigenvalues --    2.50722   2.51051   2.51357   2.52500   2.55245
 Alpha virt. eigenvalues --    2.55588   2.56623   2.56863   2.58014   2.58876
 Alpha virt. eigenvalues --    2.59175   2.59853   2.59951   2.60259   2.60424
 Alpha virt. eigenvalues --    2.60478   2.61098   2.61496   2.62244   2.63375
 Alpha virt. eigenvalues --    2.63633   2.63736   2.64186   2.64757   2.65132
 Alpha virt. eigenvalues --    2.65238   2.65548   2.65812   2.66577   2.67120
 Alpha virt. eigenvalues --    2.67939   2.68979   2.69442   2.69904   2.71012
 Alpha virt. eigenvalues --    2.71749   2.72110   2.72919   2.73610   2.74449
 Alpha virt. eigenvalues --    2.75333   2.76994   2.77985   2.78177   2.78433
 Alpha virt. eigenvalues --    2.78843   2.78961   2.79269   2.79433   2.79991
 Alpha virt. eigenvalues --    2.80416   2.80712   2.80866   2.81272   2.81376
 Alpha virt. eigenvalues --    2.81687   2.81801   2.82150   2.82630   2.83207
 Alpha virt. eigenvalues --    2.83648   2.84051   2.85460   2.86019   2.86817
 Alpha virt. eigenvalues --    2.87942   2.88453   2.90284   2.90972   2.92692
 Alpha virt. eigenvalues --    2.94009   2.94750   2.94833   2.95563   2.96695
 Alpha virt. eigenvalues --    2.97781   2.98281   2.98556   2.99047   3.00291
 Alpha virt. eigenvalues --    3.00528   3.03584   3.04278   3.05448   3.08149
 Alpha virt. eigenvalues --    3.08730   3.11412   3.11566   3.12527   3.13452
 Alpha virt. eigenvalues --    3.15541   3.16444   3.20042   3.25191   3.26417
 Alpha virt. eigenvalues --    3.30196   3.32358   3.33322   3.36355   3.43896
 Alpha virt. eigenvalues --    3.44963   3.47873  14.46998
          Condensed to atoms (all electrons):
 Mulliken charges:
               1
     1  C    0.280645
     2  C    0.035297
     3  C   -0.203411
     4  C    0.074871
     5  C   -0.217407
     6  C    0.306715
     7  C    0.039619
     8  C   -0.177619
     9  C   -0.137546
    10  C   -0.185229
    11  H    0.212928
    12  H    0.168944
    13  H    0.247171
    14  H    0.176418
    15  N   -0.436057
    16  N   -0.492174
    17  Ir  -0.231907
    18  O   -0.507079
    19  O   -0.524722
    20  O   -0.505053
    21  B    0.512364
    22  B    0.511768
    23  B    0.505700
    24  O   -0.515137
    25  O   -0.544878
    26  C    0.307413
    27  C    0.286906
    28  C    0.290522
    29  C    0.295433
    30  C    0.291659
    31  C    0.297263
    32  O   -0.521913
    33  C   -0.512227
    34  H    0.146503
    35  H    0.167018
    36  H    0.170699
    37  C   -0.497996
    38  H    0.157773
    39  H    0.138735
    40  H    0.185866
    41  C   -0.511683
    42  H    0.159667
    43  H    0.151633
    44  H    0.178013
    45  C   -0.510972
    46  H    0.149705
    47  H    0.159124
    48  H    0.176480
    49  C   -0.501461
    50  H    0.164601
    51  H    0.145479
    52  H    0.186691
    53  C   -0.505205
    54  H    0.152423
    55  H    0.166304
    56  H    0.160770
    57  C   -0.512900
    58  H    0.150672
    59  H    0.164547
    60  H    0.177044
    61  C   -0.511470
    62  H    0.156250
    63  H    0.149049
    64  H    0.186272
    65  C   -0.508812
    66  H    0.169328
    67  H    0.165856
    68  H    0.150855
    69  C   -0.503127
    70  H    0.171503
    71  H    0.150507
    72  H    0.158760
    73  C   -0.507761
    74  H    0.149560
    75  H    0.167899
    76  H    0.163350
    77  C   -0.500031
    78  H    0.163720
    79  H    0.145367
    80  H    0.177105
    81  C   -0.180437
    82  C    0.067664
    83  C   -0.172190
    84  C   -0.179735
    85  C   -0.123594
    86  C   -0.176956
    87  H    0.139505
    88  H    0.254996
    89  H    0.149578
    90  H    0.179238
    91  H    0.147656
    92  H    0.183064
    93  H    0.148196
    94  C    0.106294
    95  C   -0.206449
    96  C   -0.200508
    97  C   -0.173658
    98  H    0.162530
    99  C   -0.146875
   100  H    0.154812
   101  C    0.027198
   102  H    0.179033
   103  H    0.154663
   104  C    0.594601
   105  O   -0.515400
   106  O   -0.475343
   107  C   -0.259502
   108  H    0.194116
   109  H    0.185354
   110  H    0.190090
   111  H    0.183289
   112  C    0.062152
   113  C   -0.189632
   114  C   -0.223069
   115  C   -0.168131
   116  H    0.159816
   117  C    0.088265
   118  H    0.150846
   119  C   -0.191532
   120  H    0.164111
   121  H    0.161447
   122  C    0.082097
   123  C   -0.210841
   124  C   -0.197219
   125  C   -0.184674
   126  H    0.152345
   127  C   -0.242591
   128  H    0.148180
   129  C    0.354553
   130  H    0.206433
   131  H    0.151662
   132  N   -0.763891
   133  C    0.768753
   134  H    0.367721
   135  O   -0.526822
   136  C   -0.361037
   137  H    0.167449
   138  H    0.216440
   139  H    0.167225
   140  N   -0.661916
   141  H    0.367647
 Sum of Mulliken charges =  -0.00000
 Mulliken charges with hydrogens summed into heavy atoms:
               1
     1  C    0.280645
     2  C    0.248225
     3  C   -0.024173
     4  C    0.074871
     5  C   -0.048463
     6  C    0.306715
     7  C    0.286790
     8  C    0.005445
     9  C    0.045743
    10  C   -0.008811
    15  N   -0.436057
    16  N   -0.492174
    17  Ir  -0.231907
    18  O   -0.507079
    19  O   -0.524722
    20  O   -0.505053
    21  B    0.512364
    22  B    0.511768
    23  B    0.505700
    24  O   -0.515137
    25  O   -0.544878
    26  C    0.307413
    27  C    0.286906
    28  C    0.290522
    29  C    0.295433
    30  C    0.291659
    31  C    0.297263
    32  O   -0.521913
    33  C   -0.028006
    37  C   -0.015623
    41  C   -0.022371
    45  C   -0.025662
    49  C   -0.004691
    53  C   -0.025708
    57  C   -0.020638
    61  C   -0.019899
    65  C   -0.022772
    69  C   -0.022357
    73  C   -0.026951
    77  C   -0.013839
    81  C   -0.032781
    82  C    0.067664
    83  C   -0.022613
    84  C   -0.040230
    85  C    0.131402
    86  C   -0.028761
    94  C    0.106294
    95  C   -0.043919
    96  C   -0.045696
    97  C    0.005375
    99  C    0.007788
   101  C    0.027198
   104  C    0.594601
   105  O   -0.515400
   106  O   -0.475343
   107  C    0.310058
   112  C    0.062152
   113  C   -0.029816
   114  C   -0.072223
   115  C   -0.004020
   117  C    0.088265
   119  C   -0.030085
   122  C    0.082097
   123  C   -0.058497
   124  C   -0.049039
   125  C    0.021759
   127  C   -0.090930
   129  C    0.354553
   132  N   -0.396171
   133  C    0.768753
   135  O   -0.526822
   136  C    0.190077
   140  N   -0.294270
 APT charges:
               1
     1  C    0.254249
     2  C    0.164468
     3  C   -0.207816
     4  C    0.371434
     5  C   -0.281224
     6  C    0.212962
     7  C    0.066855
     8  C   -0.103309
     9  C    0.144385
    10  C   -0.190850
    11  H    0.108027
    12  H    0.053217
    13  H    0.151043
    14  H    0.042455
    15  N   -0.367340
    16  N   -0.163818
    17  Ir  -1.177719
    18  O   -0.988658
    19  O   -1.063207
    20  O   -1.006961
    21  B    1.443478
    22  B    1.340137
    23  B    1.341325
    24  O   -1.006962
    25  O   -1.054500
    26  C    0.530974
    27  C    0.496165
    28  C    0.488400
    29  C    0.475648
    30  C    0.502151
    31  C    0.530434
    32  O   -1.035564
    33  C   -0.002044
    34  H   -0.021887
    35  H   -0.003578
    36  H    0.000159
    37  C   -0.026148
    38  H    0.002996
    39  H   -0.036862
    40  H    0.027308
    41  C   -0.039045
    42  H   -0.001405
    43  H   -0.027320
    44  H    0.009606
    45  C   -0.014589
    46  H   -0.021839
    47  H   -0.005424
    48  H    0.011735
    49  C   -0.023999
    50  H   -0.008832
    51  H   -0.031633
    52  H    0.009593
    53  C   -0.011885
    54  H   -0.020167
    55  H    0.000915
    56  H    0.001630
    57  C   -0.013530
    58  H   -0.020020
    59  H   -0.001229
    60  H    0.006530
    61  C   -0.040970
    62  H   -0.004319
    63  H   -0.027360
    64  H    0.027070
    65  C   -0.002799
    66  H    0.001051
    67  H    0.005809
    68  H   -0.022393
    69  C   -0.026215
    70  H    0.003070
    71  H   -0.026077
    72  H   -0.009225
    73  C   -0.006538
    74  H   -0.019524
    75  H   -0.003758
    76  H   -0.001524
    77  C   -0.037805
    78  H    0.000682
    79  H   -0.032589
    80  H    0.030272
    81  C    0.045358
    82  C   -0.233783
    83  C   -0.221345
    84  C    0.050248
    85  C    0.281419
    86  C   -0.207309
    87  H    0.011490
    88  H    0.356171
    89  H    0.025087
    90  H    0.049495
    91  H    0.014503
    92  H    0.036038
    93  H    0.041265
    94  C    0.528881
    95  C   -0.285774
    96  C   -0.289737
    97  C    0.180464
    98  H    0.041681
    99  C    0.173895
   100  H    0.034854
   101  C   -0.580705
   102  H    0.045375
   103  H    0.064197
   104  C    1.777665
   105  O   -1.045480
   106  O   -1.109688
   107  C    0.599952
   108  H   -0.003715
   109  H   -0.028818
   110  H   -0.021467
   111  H    0.029838
   112  C    0.060510
   113  C   -0.138447
   114  C   -0.181675
   115  C    0.051579
   116  H    0.033856
   117  C    0.281020
   118  H    0.039582
   119  C   -0.145114
   120  H    0.000024
   121  H    0.032325
   122  C   -0.173529
   123  C    0.104683
   124  C    0.051376
   125  C   -0.200401
   126  H    0.035638
   127  C   -0.246700
   128  H    0.027005
   129  C    0.708474
   130  H    0.111768
   131  H    0.026949
   132  N   -1.253451
   133  C    1.688099
   134  H    0.280834
   135  O   -0.852518
   136  C    0.415148
   137  H   -0.073494
   138  H    0.073853
   139  H   -0.058543
   140  N   -0.962990
   141  H    0.288307
 Sum of APT charges =   0.00000
 APT charges with hydrogens summed into heavy atoms:
               1
     1  C    0.254249
     2  C    0.272495
     3  C   -0.158320
     4  C    0.371434
     5  C   -0.228007
     6  C    0.212962
     7  C    0.217898
     8  C   -0.067271
     9  C    0.174223
    10  C   -0.148395
    15  N   -0.367340
    16  N   -0.163818
    17  Ir  -1.177719
    18  O   -0.988658
    19  O   -1.063207
    20  O   -1.006961
    21  B    1.443478
    22  B    1.340137
    23  B    1.341325
    24  O   -1.006962
    25  O   -1.054500
    26  C    0.530974
    27  C    0.496165
    28  C    0.488400
    29  C    0.475648
    30  C    0.502151
    31  C    0.530434
    32  O   -1.035564
    33  C   -0.027350
    37  C   -0.032705
    41  C   -0.058164
    45  C   -0.030117
    49  C   -0.054871
    53  C   -0.029508
    57  C   -0.028249
[...]
 0000937,0.00027597,-0.00009172,0.00000398,0.00005403,0.00004531,-0.000
 01472,0.00007371,-0.00002074,-0.00005434,0.00008136,-0.00002950,0.0000
 4565,-0.00012688,0.00007437,0.00010398,-0.00009168,-0.00007280,-0.0000
 0353,-0.00011968,0.00007213,-0.00003669,0.00006666,-0.00006976,0.00003
 860,0.00004679,0.00003786,0.00001176,-0.00002576,-0.00001651,0.0000036
 6,-0.00002825,-0.00002251,-0.00000544,-0.00002797,0.00002361,-0.000009
 92,-0.00002057,0.00000995,-0.00002832,-0.00001213,0.00001381,0.0000306
 3,-0.00003636,0.00002044,0.00002140,0.00004630,-0.00005698,-0.00006836
 ,-0.00000059,0.00000242,-0.00000127,0.00000216,0.00000375,0.00000174,0
 .00000090,-0.00000229,-0.00000308,0.00000027,-0.00000299,0.00000242,0.
 00000407,-0.00000006,0.00000024,-0.00000016,-0.00000206,-0.00000237,0.
 00000509,0.00000346,0.00000202,-0.00000305,0.00000013,-0.00000031,0.00
 000180,-0.00000040,-0.00000545,-0.00000308,-0.00000391,-0.00000701,0.0
 0000462,0.00000506,-0.00000039,-0.00000287,-0.00000152,0.00001100,0.00
 000339,-0.00000125,0.00000138,0.00000230,0.00000393,-0.00000099,-0.000
 00251,-0.00000041,-0.00000011,0.00000208,-0.00000264,0.00000123,-0.000
 00186,-0.00000050,-0.00000399,-0.00000150,-0.00000006,0.00000196,0.000
 00183,-0.00000094,-0.00000583,0.00000200,-0.00000072,0.00000345,0.0000
 0199,-0.00000008,-0.00000216,0.00000200,-0.00000187,-0.00000404,0.0000
 0024,0.00000155,0.00000163,-0.00000029,-0.00000082,0.00000221,0.000003
 25,-0.00000106,-0.00000310,0.00000448,-0.00000139,-0.00000365,-0.00000
 351,0.00000019,0.00000075,-0.00000158,-0.00000066,0.00000311,0.0000057
 6,-0.00000306,-0.00000111,-0.00000319,0.00000076,0.00000040,0.00000541
 ,-0.00000399,-0.00000220,-0.00000202,0.00000299,0.00000052,0.00000276,
 -0.00000072,0.00000287,-0.00000248,-0.00000209,-0.00000126,-0.00000084
 ,0.00000115,-0.00000107,0.00000440,-0.00000182,0.00000269,0.00000178,0
 .00000248,0.00000491,-0.00000222,0.00000023,-0.00000209,0.00000346,-0.
 00000175,0.00000529,0.00000064,-0.00000179,-0.00000349,0.00000317,-0.0
 0000162,0.00000129,0.00000404,-0.00000327,0.00000287,-0.00000128,0.000
 00196,-0.00000041,-0.00000171,0.00000134,-0.00000132,0.00000446,-0.000
 00421,0.00000105,-0.00000238,0.00000132,-0.00000094,0.00000599,-0.0000
 0353,0.00000045,-0.00000340,0.00000237,0.00000071,0.00000438,0.0001441
 7,0.00004174,0.00020583,-0.00005678,-0.00001363,0.00014426,0.00000150,
 0.00007103,-0.00007374,-0.00013206,-0.00001445,-0.00007820,0.00007464,
 -0.00012016,0.00011375,-0.00009458,-0.00004985,-0.00002021,-0.00000719
 ,-0.00001572,-0.00012513,0.00003548,0.00004148,0.00001446,-0.00001597,
 -0.00001360,0.00000075,0.00000387,-0.00000810,-0.00001379,0.00002351,0
 .00000035,-0.00000254,0.00000316,0.00000124,0.00001202,0.00000944,0.00
 000029,-0.00038037,0.00020626,0.00001407,0.00039244,-0.00035954,-0.000
 05105,0.00032140,0.00020623,0.00006466,-0.00038676,-0.00045908,-0.0000
 3994,0.00006251,0.00001351,-0.00000522,-0.00014389,0.00040975,0.000061
 36,0.00006162,-0.00005324,-0.00000845,0.00146118,0.00035298,-0.0004172
 9,-0.00005113,-0.00000348,-0.00001835,-0.00009265,0.00020345,-0.000048
 57,-0.00467396,-0.00592720,0.00148850,0.00089430,0.00230822,-0.0005151
 3,-0.00059815,0.00331336,-0.00015299,0.00135432,-0.00056730,-0.0001090
 1,-0.00005252,0.00008924,0.00000209,-0.00003327,-0.00002353,-0.0001331
 5,-0.00004140,0.00001299,0.00011506,-0.00000248,0.00000178,0.00000210,
 0.00000595,-0.00000521,-0.00001342,-0.00004207,0.00001692,0.00001656,-
 0.00005418,0.00005084,0.00000720,0.00000691,-0.00001537,0.00000238,-0.
 00000270,0.00000493,-0.00000303,0.00010296,-0.00010708,-0.00001488,0.0
 0000673,-0.00000514,-0.00001105,-0.00003124,0.00003666,0.00000561,-0.0
 0000232,-0.00000024,-0.00000067,-0.00000347,-0.00001351,-0.00000293,-0
 .00014113,0.00006125,-0.00006570,0.00009561,-0.00013073,-0.00009814,-0
 .00006624,-0.00000407,0.00002757,0.00000225,0.00018334,0.00016315,0.00
 000951,0.00000075,0.00001214,-0.00016947,0.00012454,0.00004009,-0.0000
 2522,0.00001623,-0.00002996,0.00013881,-0.00088575,0.00015744,0.000249
 00,-0.00017039,-0.00009209,0.00002178,0.00001279,-0.00010852,-0.003579
 86,0.00030435,-0.00026087,0.01798320,0.00996118,0.01022733,-0.00183222
 ,0.00409794,-0.00267679,-0.00146597,0.00843974,-0.00114915,-0.01045034
 ,-0.02098475,-0.00322692,0.00095761,0.00023933,0.00009703,-0.00375109,
 0.00163135,-0.00224847,0.00023933,-0.00025123,0.00066819,-0.16122026,-
 0.16300165,-0.07492395,0.16457108,0.00004133,0.00003061,-0.00000168,0.
 00001213,0.00002453,0.00001387,-0.00004399,-0.00002710,-0.00000038,0.0
 0010037,0.00007000,0.00002680,-0.00005006,-0.00004998,-0.00002479,0.00
 000312,0.00003001,0.00002431,-0.00000647,-0.00000943,-0.00001353,-0.00
 000556,-0.00001179,0.00000542,0.00000262,0.00000354,0.00000771,0.00000
 342,-0.00000390,-0.00001477,0.00000233,0.00000359,-0.00000362,0.000006
 40,0.00001369,0.00000827,-0.00000168,0.00000390,-0.00000596,-0.0000021
 7,-0.00000247,0.00000632,-0.00004342,-0.00003202,0.00000213,-0.0000211
 7,-0.00001168,0.00000199,0.00017485,-0.00006687,0.00000630,0.00001926,
 0.00000529,-0.00000382,0.00003101,-0.00001648,-0.00002794,0.00003655,-
 0.00002233,0.00002169,-0.00006068,0.00005797,0.00006242,-0.00003784,-0
 .00001081,-0.00000747,-0.00005367,0.00005537,-0.00001503,0.00002999,-0
 .00004668,0.00001862,0.00001575,-0.00000724,0.00000516,-0.00001195,0.0
 0000556,-0.00000151,-0.00001105,-0.00000535,-0.00000013,-0.00001153,0.
 00001377,-0.00000421,-0.00000687,0.00000593,-0.00001424,-0.00000378,0.
 00001046,0.00001430,-0.00001638,0.00001152,0.00000910,0.00001479,-0.00
 004314,-0.00003777,-0.00000162,0.00000108,-0.00000021,0.00000022,0.000
 00102,0.00000068,0.00000094,-0.00000102,-0.00000174,0.00000114,-0.0000
 0156,0.00000184,0.00000190,-0.00000080,-0.00000045,0.00000075,-0.00000
 061,-0.00000185,0.00000166,0.00000106,0.00000072,-0.00000102,0.0000004
 2,0.00000053,0.00000190,-0.00000270,-0.00000237,-0.00000144,-0.0000009
 5,-0.00000534,0.00000147,0.00000083,0.00000050,-0.00000208,0.00000058,
 0.00000638,0.00000153,-0.00000240,0.00000119,-0.00000004,0.00000117,-0
 .00000022,-0.00000097,0.00000051,-0.00000121,0.00000232,-0.00000140,0.
 00000102,-0.00000148,-0.00000108,-0.00000196,-0.00000194,-0.00000108,0
 .00000049,0.00000116,-0.00000029,-0.00000270,0.00000144,0.00000068,0.0
 0000182,0.00000067,-0.00000071,-0.00000122,0.00000131,-0.00000056,-0.0
 0000200,-0.00000074,-0.00000004,0.00000049,0.00000057,-0.00000053,0.00
 000166,0.00000265,0.00000065,-0.00000142,0.00000158,-0.00000046,-0.000
 00171,-0.00000247,-0.00000141,-0.00000016,-0.00000015,-0.00000050,0.00
 000196,0.00000480,-0.00000037,0.00000010,-0.00000310,-0.00000165,-0.00
 000133,0.00000212,-0.00000237,-0.00000042,0.,0.00000206,0.00000033,0.0
 0000169,0.00000044,0.00000204,-0.00000140,-0.00000242,-0.00000041,-0.0
 0000033,0.00000092,-0.00000002,0.00000187,-0.00000098,0.00000069,0.000
 00175,0.00000231,0.00000332,-0.00000130,-0.00000206,-0.00000118,0.0000
 0081,-0.00000072,0.00000247,0.00000115,-0.00000020,-0.00000144,0.00000
 183,-0.00000126,0.00000020,0.00000220,-0.00000133,0.00000155,-0.000001
 41,-0.00000018,0.,-0.00000060,0.00000127,-0.00000018,0.00000227,-0.000
 00256,0.00000074,-0.00000185,-0.00000041,-0.00000055,0.00000304,-0.000
 00146,0.00000033,-0.00000151,0.00000158,0.00000007,0.00000976,0.000105
 72,0.00003937,0.00014431,-0.00005699,-0.00001207,0.00009974,-0.0000025
 7,0.00005246,-0.00005593,-0.00008989,-0.00000451,-0.00005143,0.0000524
 0,-0.00008361,0.00007850,-0.00006903,-0.00003631,-0.00001296,-0.000007
 78,-0.00001335,-0.00008224,0.00002536,0.00002623,0.00001257,-0.0000112
 1,-0.00001373,0.00000593,0.00000389,-0.00001095,-0.00001166,0.00001649
 ,-0.00000781,-0.00000332,0.00000110,-0.00000023,0.00000681,0.00000718,
 -0.00000189,-0.00025720,0.00018589,0.00001750,0.00029575,-0.00030084,-
 0.00003756,0.00018267,0.00006609,0.00003417,-0.00023830,-0.00037369,-0
 .00006111,0.00004630,0.00000381,-0.00000145,0.00003048,0.00049228,0.00
 003740,0.00006920,-0.00004412,-0.00001442,0.00119757,0.00033676,-0.000
 33813,-0.00007480,-0.00003406,-0.00001191,0.00000799,0.00011582,-0.000
 01995,-0.00370385,-0.00391548,0.00095639,0.00147512,0.00109231,-0.0006
 0200,0.00055253,0.00065346,0.00007797,-0.00041267,-0.00013428,-0.00033
 660,0.00016996,0.00013715,0.00009857,0.00017107,-0.00032465,0.00042831
 ,-0.00005391,-0.00016042,-0.00019993,-0.00000067,0.00000233,0.00000028
 ,0.00002646,-0.00000421,-0.00002599,-0.00008263,0.00003859,0.00002762,
 -0.00011869,0.00005530,-0.00001073,0.00002362,-0.00003338,0.00000627,-
 0.00000884,0.00000898,-0.00000370,0.00026930,-0.00019648,-0.00000640,0
 .00002036,-0.00000394,-0.00000510,-0.00008929,0.00008285,0.00001031,-0
 .00000610,0.00000993,0.00000120,0.00000130,-0.00002082,-0.00000213,-0.
 00027427,0.00017279,-0.00006816,0.00029962,-0.00007608,0.00012643,0.00
 005363,-0.00017663,0.00004217,-0.00037762,0.00053246,-0.00001965,-0.00
 002616,0.00003712,0.00001915,-0.00061359,0.00021818,-0.00006515,-0.000
 05826,0.00002493,-0.00003905,0.00198303,-0.00144011,0.00000045,-0.0000
 4133,0.00006083,0.00004454,0.00007538,0.00001808,-0.00004833,-0.003153
 19,0.00249361,-0.00122440,-0.01806082,-0.02074581,-0.00702129,0.002719
 71,0.00047178,0.00137348,0.00367003,-0.00237943,0.00030787,0.00494393,
 0.01179817,0.00286238,0.00013638,-0.00010075,0.00070474,0.00285018,0.0
 0011656,0.00158685,0.00032186,-0.00021857,-0.00044549,-0.15495551,-0.3
 2184634,-0.07693898,0.16074721,0.33337043,0.00002082,0.00001261,0.0000
 0448,0.00000581,0.00000813,0.00000394,-0.00001957,-0.00000988,-0.00000
 308,0.00004499,0.00003105,0.00001338,-0.00002790,-0.00002002,-0.000009
 74,-0.00000049,0.00001042,0.00002023,0.00000087,-0.00000010,-0.0000055
 3,-0.00000381,-0.00000636,0.00000181,0.00000264,0.00000430,0.00000987,
 0.00000036,-0.00000530,-0.00001599,0.00000253,0.00000027,-0.00000131,0
 .00000412,0.00000494,0.00000468,-0.00000052,0.00000029,-0.00000016,-0.
 00000086,0.00000094,0.00000478,-0.00001949,-0.00001575,-0.00000330,-0.
 00000115,-0.00000447,-0.00000646,0.00001419,-0.00001005,-0.00000312,-0
 .00000610,-0.00001026,-0.00000308,-0.00000493,-0.00000466,-0.00000590,
 -0.00000775,-0.00000285,-0.00000656,0.00000408,0.00001423,0.00001442,0
 .00000675,0.00001740,0.00000469,0.00001013,0.00000802,0.00000900,-0.00
 000684,-0.00000278,-0.00000679,-0.00000556,-0.00001686,-0.00000691,0.0
 0000195,0.00000769,-0.00000070,0.00000292,0.00000363,0.00000379,0.0000
 0323,-0.00000058,0.00000257,0.00000374,-0.00000060,0.00000468,0.000002
 22,0.00000204,0.00000243,0.00000141,0.00000057,0.00000228,-0.00000687,
 -0.00001051,-0.00000949,-0.00000008,-0.00000025,0.00000018,-0.00000083
 ,-0.00000077,-0.00000032,0.00000099,-0.00000009,-0.00000039,-0.0000000
 9,0.00000051,0.00000079,-0.00000029,0.00000022,-0.00000045,0.00000084,
 0.00000012,-0.00000062,-0.00000088,-0.00000085,-0.00000016,0.00000026,
 0.00000046,0.00000032,-0.00000008,-0.00000097,0.00000167,0.00000051,0.
 00000067,-0.00000159,-0.00000024,-0.00000086,0.00000072,-0.00000064,0.
 00000019,-0.00000014,-0.00000079,-0.00000054,0.00000045,-0.00000064,-0
 .00000046,0.00000025,0.00000082,-0.00000002,-0.00000125,0.00000027,0.0
 0000027,0.00000030,0.00000022,0.00000019,-0.00000029,-0.00000104,-0.00
 000099,-0.00000041,0.00000076,-0.00000007,-0.00000035,-0.00000025,0.00
 000076,0.00000067,-0.00000027,-0.00000042,-0.00000048,0.00000049,0.000
 00010,-0.00000017,-0.00000070,-0.00000096,-0.00000005,0.00000033,0.000
 00065,0.00000008,0.00000097,0.00000041,-0.00000028,-0.00000073,0.00000
 015,-0.00000005,-0.00000047,-0.00000213,0.00000004,0.00000083,0.000001
 19,0.,0.00000161,0.00000099,-0.00000060,-0.00000102,-0.00000140,-0.000
 00048,-0.00000033,-0.00000021,0.00000071,0.00000017,0.00000041,-0.0000
 0033,0.,0.00000068,0.00000007,0.00000004,-0.00000077,0.00000062,0.0000
 0067,0.00000019,0.00000005,-0.00000078,0.00000001,-0.00000076,0.000000
 96,0.00000107,-0.00000021,0.00000005,-0.00000123,0.00000042,-0.0000012
 4,0.00000031,-0.00000076,0.00000058,0.,0.00000054,-0.00000030,-0.00000
 045,-0.00000042,-0.00000029,0.00000050,-0.00000007,-0.00000045,-0.0000
 0084,0.00000029,0.00000074,0.00000029,0.00000001,-0.00000014,0.0000001
 9,-0.00000016,-0.00000006,-0.00000066,0.00000020,-0.00000035,0.0000005
 0,0.00000004,0.00000037,-0.00000020,-0.00000030,0.00001252,0.00002833,
 0.00001269,0.00002255,-0.00001784,-0.00000574,0.00001329,-0.00000149,0
 .00000700,-0.00000986,-0.00000984,-0.00000026,-0.00000489,0.00000613,-
 0.00000888,0.00000794,-0.00001292,-0.00000904,-0.00000243,-0.00000539,
 -0.00000192,-0.00000542,0.00000200,0.00000299,0.00000494,-0.00000425,-
 0.00000262,0.00000450,-0.00000057,-0.00000421,-0.00000483,-0.00000166,
 -0.00000323,-0.00000234,-0.00000073,-0.00000070,-0.00000028,0.00000031
 ,-0.00000058,-0.00002992,0.00004724,0.00002152,0.00007416,-0.00004521,
 -0.00003282,0.00001675,-0.00001510,-0.00002060,0.00004799,-0.00016268,
 -0.00002742,0.00001911,-0.00000414,-0.00000025,0.00005764,0.00018058,-
 0.00007258,0.00002677,-0.00001661,0.00000159,0.00044972,0.00038033,0.0
 0015055,-0.00002695,-0.00001599,0.00002122,0.00000236,0.00002696,0.000
 10489,-0.00019200,-0.00118018,0.00028607,0.00003437,0.00070963,-0.0025
 2989,0.00017850,0.00050303,-0.00018211,0.00011672,-0.00007480,0.000479
 83,0.00001047,0.00003748,-0.00012091,-0.00012555,0.00009259,0.00005116
 ,-0.00008175,-0.00022562,-0.00025836,-0.00000061,0.00000144,-0.0000026
 9,0.00001002,0.00000015,-0.00001508,-0.00003770,0.00001709,0.00001016,
 -0.00005726,0.00002848,-0.00001197,0.00001170,-0.00001695,-0.00000015,
 -0.00000482,0.00000379,0.00000068,0.00010368,-0.00011280,0.00000202,0.
 00001035,-0.00000202,0.00000699,-0.00004156,0.00003627,-0.00000291,-0.
 00000280,0.00000580,0.00000289,0.00000199,-0.00000995,0.00000514,-0.00
 014262,0.00008062,-0.00004566,0.00008728,-0.00014619,-0.00011791,-0.00
 002257,-0.00006664,0.00004997,0.00003025,0.00021160,0.00015258,0.00001
 952,-0.00000321,0.00000644,-0.00021572,0.00022489,-0.00003375,-0.00002
 909,0.00000096,-0.00000972,0.00084499,-0.00072522,-0.00085893,0.000100
 01,-0.00024099,0.00008895,-0.00004172,-0.00001541,-0.00006259,-0.00194
 097,0.00117658,-0.00313262,0.00943345,-0.00428895,-0.00363687,-0.00325
 313,0.00210181,0.00138143,-0.00240062,0.00134506,0.00586927,-0.0058429
 3,-0.01301260,-0.00486193,0.00020579,-0.00080212,-0.00013374,-0.001983
 95,0.00090421,-0.00120683,0.00022830,0.00045340,0.00039880,-0.06897841
 ,-0.06616140,-0.03828400,0.07327466,0.07879136,0.04656832\\-0.00000096
 ,-0.00000191,-0.00000255,0.00000404,-0.00000224,-0.00000571,-0.0000073
 0,0.00000130,0.00000750,0.00000535,-0.00000416,-0.00000730,-0.00000331
 ,0.00000391,0.00000661,0.00000086,-0.00000163,0.00000439,0.00000324,-0
 .00000024,-0.00000436,-0.00000149,0.00000119,0.00000150,-0.00000085,-0
 .00000269,0.00000230,0.00000170,0.00000291,-0.00000421,-0.00000128,0.0
 0000101,0.00000307,0.00000329,-0.00000024,-0.00000365,-0.00000160,-0.0
 0000022,0.00000077,-0.00000084,-0.00000104,0.00000012,-0.00000109,0.00
 000066,0.00000014,-0.00000383,0.00000222,0.00000395,-0.00000139,-0.000
 00462,0.00000156,-0.00000131,-0.00000347,0.00000322,0.00000200,-0.0000
 0192,0.00000022,-0.00000019,0.00000292,0.00000227,0.00000258,0.0000040
 0,0.00000124,0.00000503,0.00000497,-0.00000482,-0.00000023,-0.00000208
 ,-0.00000220,-0.00000174,0.00000079,-0.00000259,-0.00000105,-0.0000004
 8,0.00000370,0.00000376,0.00000163,-0.00000224,-0.00000554,-0.00000037
 ,-0.00000035,0.00000460,0.00000293,-0.00000238,-0.00000136,-0.00000524
 ,0.00000453,-0.00000445,-0.00000181,0.00000236,0.00000221,0.00000316,-
 0.00000306,-0.00000008,-0.00000343,-0.00000214,-0.00000357,0.00000593,
 0.00000541,-0.00000095,-0.00000190,-0.00000004,0.00000225,-0.00000192,
 -0.00000354,0.00000343,-0.00000157,0.00000124,0.00000177,-0.00000170,0
 .00000676,0.00000128,-0.00000166,-0.00000301,0.00000078,0.00000083,0.0
 0000058,-0.00000029,0.00000029,-0.00000051,0.00000048,-0.00000136,-0.0
 0000304,-0.00000184,0.00000034,0.00000346,0.00000074,0.00000083,0.0000
 0052,0.00000054,-0.00000003,0.00000114,0.00000028,-0.00000538,-0.00000
 025,0.00000069,0.00000137,0.00000025,-0.00000086,0.00000081,0.00000298
 ,-0.00000109,0.00000094,0.00000047,-0.00000097,0.00000150,0.00000244,0
 .00000003,0.00000048,0.00000086,0.00000055,-0.00000046,-0.00000221,0.0
 0000274,-0.00000087,0.00000078,-0.00000306,-0.00000180,-0.00000002,0.0
 0000046,-0.00000012,0.00000091,0.00000282,0.00000217,0.00000084,0.0000
 0022,0.00000053,0.00000054,0.00000588,-0.00000009,0.00000183,-0.000000
 77,0.00000048,0.00000117,-0.00000263,-0.00000172,-0.00000069,-0.000001
 18,0.00000144,-0.00000017,-0.00000300,0.00000567,0.00000721,-0.0000010
 6,-0.00000202,-0.00000050,0.00000332,-0.00000212,-0.00000250,-0.000000
 19,-0.00000092,-0.00000261,-0.00000647,-0.00000246,-0.00000113,0.00000
 267,0.00000381,0.00000042,-0.00000012,-0.00000029,0.00000124,0.0000014
 7,-0.00000065,0.00000095,0.00000473,-0.00000646,-0.00000135,0.00000011
 ,0.00000075,0.00000015,-0.00000171,0.00000075,-0.00000093,-0.00000248,
 0.00000218,0.00000243,0.00000653,-0.00000286,-0.00000115,-0.00000275,0
 .00000112,-0.00000020,-0.00000171,-0.00000104,0.00000033,-0.00000346,0
 .00000032,0.00000357,0.00000099,-0.00000037,0.00000285,-0.00000058,-0.
 00000051,0.00000094,-0.00000136,-0.00000006,0.00000018,0.00000002,-0.0
 0000026,-0.00000236,0.00000882,0.00000321,0.00000301,0.00000857,0.0000
 0481,0.00000410,-0.00000872,0.00000325,0.00000314,-0.00000473,-0.00000
 748,-0.00000453,0.00000351,-0.00000284,-0.00000378,-0.00000700,0.00000
 237,-0.00000022,0.00000028,0.00000009,0.00000002,-0.00000161,0.0000008
 8,-0.00000027,0.00000129,-0.00000140,-0.00000145,0.00000085,0.00000024
 ,-0.00000114,-0.00000238,-0.00000211,-0.00000224,-0.00000079,-0.000001
 39,-0.00000077,0.00000376,0.00000222,0.00000210,-0.00000205,0.00000043
 ,-0.00000146,0.00000353,0.00000301,-0.00000093,-0.00000494,-0.00000424
 ,0.00000080,0.00000240,-0.00000315,0.00000063,-0.00000261,-0.00000190,
 0.00000033,0.00000560,0.00000359,-0.00000054,0.00000087,0.00000181,-0.
 00000052,-0.00000439,0.00000011,-0.00000034,-0.00000031,0.00000200,-0.
 00000018,-0.00000102,-0.00000036,-0.00000043,0.00000073,-0.00000743,-0
 .00000060,0.00000231,0.00000131,-0.00000059,-0.00000210,0.00000576,0.0
 0000030,-0.00000017,0.00000677,-0.00000486,0.00000083,-0.00000503,-0.0
 0000006,0.00000139,0.00000039,0.00000131,-0.00000065,-0.00000088,0.000
 00159,0.00000002,0.00000010,-0.00000005,-0.00000437,-0.00000148,-0.000
 00249,-0.00000280,0.00000708,0.00000136,0.00000112,-0.00000675,0.00000
 033,-0.00000382,0.00000512,0.00000107,0.00000422,-0.00000299,-0.000001
 32,0.00000106,0.00000327,-0.00000074,-0.00000045,0.00000361,-0.0000004
 5,-0.00000020,-0.00000517,-0.00000255,0.00000026,-0.00000167,-0.000001
 16,0.00000133,0.00000130,-0.00000044,0.00000677,0.00000273,0.00000392,
 -0.00000495,0.00000006,-0.00000059,0.00000026,-0.00000446,-0.00000417,
 0.00000150,0.00000530,0.00000083,0.00000075,-0.00000095,-0.00000199,-0
 .00000226,0.00000553,0.00000186,-0.00000028,-0.00000021,-0.00000052,-0
 .00000011,-0.00000327,-0.00000095,-0.00000219,-0.00000056,-0.00000207,
 -0.00000043,-0.00000184,-0.00000201,0.00000207,-0.00000724,-0.00000272
 ,-0.00000018,0.00000654,0.00000007,0.00000051,0.00000580,0.00000090,-0
 .00000097,-0.00000197,-0.00000155,0.00000168,0.00000174,-0.00000218,0.
 00000023,0.00000023,-0.00000057,-0.00000095,-0.00000226,-0.00000131,-0
 .00000137,0.00000226,0.00000039,0.00000150,0.00000009,-0.00000104,-0.0
 0000069,-0.00000173,-0.00000044\\\@
 The archive entry for this job was punched.


      LET US REMEMBER, PLEASE, THAT THE SEARCH FOR THE CONSTITUTION
      OF THE WORLD IS ONE OF THE GREATEST AND NOBLEST PROBLEMS PRESENTED 
      BY NATURE.

                                                  -- GALILEO
 Job cpu time:       3 days  3 hours 50 minutes 55.3 seconds.
 Elapsed time:       0 days  4 hours 53 minutes 13.4 seconds.
 File lengths (MBytes):  RWF=  21177 Int=      0 D2E=      0 Chk=     94 Scr=      1
 Normal termination of Gaussian 16 at Sun Dec  8 03:10:42 2024.
