/mnt/lustre/scratch/nvme/SLURM/9664121/usccqdma.c3zfJtMKyc
OMP_STACKSIZE=0m
GAUSS_PDEF=16
GAUSS_MDEF=65536MB
GAUSS_RDEF=SCF=Direct
 Entering Gaussian System, Link 0=g16.exe
 Initial command:
 /opt/cesga/2020/software/Core/g16/c1/l1.exe "/mnt/lustre/scratch/nvme/SLURM/9664121/usccqdma.c3zfJtMKyc/Gau-3155841.inp" -scrdir="/mnt/lustre/scratch/nvme/SLURM/9664121/usccqdma.c3zfJtMKyc/"
 Default is to use a total of  16 processors:
                               16 via shared-memory
                                1 via Linda
 Entering Link 1 = /opt/cesga/2020/software/Core/g16/c1/l1.exe PID=   3155867.
  
 Copyright (c) 1988-2019, Gaussian, Inc.  All Rights Reserved.
  
 This is part of the Gaussian(R) 16 program.  It is based on
 the Gaussian(R) 09 system (copyright 2009, Gaussian, Inc.),
 the Gaussian(R) 03 system (copyright 2003, Gaussian, Inc.),
 the Gaussian(R) 98 system (copyright 1998, Gaussian, Inc.),
 the Gaussian(R) 94 system (copyright 1995, Gaussian, Inc.),
 the Gaussian 92(TM) system (copyright 1992, Gaussian, Inc.),
 the Gaussian 90(TM) system (copyright 1990, Gaussian, Inc.),
 the Gaussian 88(TM) system (copyright 1988, Gaussian, Inc.),
 the Gaussian 86(TM) system (copyright 1986, Carnegie Mellon
 University), and the Gaussian 82(TM) system (copyright 1983,
 Carnegie Mellon University). Gaussian is a federally registered
 trademark of Gaussian, Inc.
  
 This software contains proprietary and confidential information,
 including trade secrets, belonging to Gaussian, Inc.
  
 This software is provided under written license and may be
 used, copied, transmitted, or stored only in accord with that
 written license.
  
 The following legend is applicable only to US Government
 contracts under FAR:
  
                    RESTRICTED RIGHTS LEGEND
  
 Use, reproduction and disclosure by the US Government is
 subject to restrictions as set forth in subparagraphs (a)
 and (c) of the Commercial Computer Software - Restricted
 Rights clause in FAR 52.227-19.
  
 Gaussian, Inc.
 340 Quinnipiac St., Bldg. 40, Wallingford CT 06492
  
  
 ---------------------------------------------------------------
 Warning -- This program may not be used in any manner that
 competes with the business of Gaussian, Inc. or will provide
 assistance to any competitor of Gaussian, Inc.  The licensee
 of this program is prohibited from giving any competitor of
 Gaussian, Inc. access to this program.  By using this program,
 the user acknowledges that Gaussian, Inc. is engaged in the
 business of creating and licensing software in the field of
 computational chemistry and represents and warrants to the
 licensee that it is not a competitor of Gaussian, Inc. and that
 it will not use this program in any manner prohibited above.
 ---------------------------------------------------------------
  

 Cite this work as:
 Gaussian 16, Revision C.01,
 M. J. Frisch, G. W. Trucks, H. B. Schlegel, G. E. Scuseria, 
 M. A. Robb, J. R. Cheeseman, G. Scalmani, V. Barone, 
 G. A. Petersson, H. Nakatsuji, X. Li, M. Caricato, A. V. Marenich, 
 J. Bloino, B. G. Janesko, R. Gomperts, B. Mennucci, H. P. Hratchian, 
 J. V. Ortiz, A. F. Izmaylov, J. L. Sonnenberg, D. Williams-Young, 
 F. Ding, F. Lipparini, F. Egidi, J. Goings, B. Peng, A. Petrone, 
 T. Henderson, D. Ranasinghe, V. G. Zakrzewski, J. Gao, N. Rega, 
 G. Zheng, W. Liang, M. Hada, M. Ehara, K. Toyota, R. Fukuda, 
 J. Hasegawa, M. Ishida, T. Nakajima, Y. Honda, O. Kitao, H. Nakai, 
 T. Vreven, K. Throssell, J. A. Montgomery, Jr., J. E. Peralta, 
 F. Ogliaro, M. J. Bearpark, J. J. Heyd, E. N. Brothers, K. N. Kudin, 
 V. N. Staroverov, T. A. Keith, R. Kobayashi, J. Normand, 
 K. Raghavachari, A. P. Rendell, J. C. Burant, S. S. Iyengar, 
 J. Tomasi, M. Cossi, J. M. Millam, M. Klene, C. Adamo, R. Cammi, 
 J. W. Ochterski, R. L. Martin, K. Morokuma, O. Farkas, 
 J. B. Foresman, and D. J. Fox, Gaussian, Inc., Wallingford CT, 2019.
 
 ******************************************
 Gaussian 16:  ES64L-G16RevC.01  3-Jul-2019
                 7-Dec-2024 
 ******************************************
 Default route: SCF=Direct
 ----------------------------------------------------
 # m06/genecp scf=tight int=ultrafine 5d freq=noraman
 ----------------------------------------------------
 1/10=4,30=1,38=1/1,3;
 2/12=2,17=6,18=5,40=1/2;
 3/5=7,8=1,11=2,16=1,17=8,25=1,30=1,71=2,74=-54,75=-5,140=1/1,2,3;
 4//1;
 5/5=2,32=2,38=5,98=1/2;
 8/6=4,10=90,11=11/1;
 11/6=1,8=1,9=11,15=111,16=1/1,2,10;
 10/6=1/2;
 6/7=2,8=2,9=2,10=2,28=1/1;
 7/8=1,10=1,25=1/1,2,3,16;
 1/10=4,30=1/3;
 99//99;
 ------
 OPT-TS
 ------
 Symbolic Z-matrix:
 Charge =  0 Multiplicity = 1
 C                     2.16664   2.76778  -0.96511 
 C                     4.04928   2.46377  -2.26207 
 C                     3.87776   3.71631  -2.87201 
 C                     2.80403   4.49771  -2.51268 
 N                     3.21427   1.99884  -1.34381 
 Ir                    3.1847   -0.12965  -0.4292 
 O                     5.43415  -2.08295  -1.26699 
 O                     4.15012  -2.49056   1.29474 
 O                     5.80298   0.41273   1.3174 
 B                     3.09319  -1.8073    0.70823 
 B                     4.9992   -0.77535  -1.14218 
 B                     4.4248    0.29556   1.23621 
 O                     3.85572   0.51761   2.49114 
 O                     5.93238   0.10058  -1.68686 
 C                     6.95329  -0.68195  -2.32671 
 C                     6.8281   -2.04651  -1.59109 
 C                     6.17371   0.50794   2.70331 
 C                     4.87062   1.05355   3.35183 
 C                     3.65526  -3.75081   1.75571 
 C                     2.17024  -3.41608   2.05952 
 O                     1.88322  -2.41507   1.06595 
 C                     7.1741   -3.25992  -2.42973 
 H                     8.2194   -3.21736  -2.76862 
 H                     7.05112  -4.16967  -1.8276 
 H                     6.52322  -3.34762  -3.30674 
 C                     7.58777  -2.08493  -0.27124 
 H                     7.23426  -2.95256   0.30375 
 H                     8.67271  -2.17707  -0.41975 
 H                     7.37458  -1.18677   0.32255 
 C                     6.58837  -0.76485  -3.80328 
 H                     6.49984   0.25392  -4.20486 
 H                     7.35051  -1.29552  -4.38964 
 H                     5.62277  -1.26967  -3.94332 
 C                     8.28667   0.0161   -2.15238 
 H                     9.10886  -0.60835  -2.53102 
 H                     8.29212   0.95911  -2.7148 
 H                     8.47557   0.25168  -1.09904 
 C                     3.8286   -4.73402   0.60407 
 H                     4.8778   -4.70332   0.2829 
 H                     3.5724   -5.76282   0.89202 
 H                     3.21811  -4.4428   -0.26101 
 C                     4.46954  -4.20427   2.95021 
 H                     4.08128  -5.15074   3.35345 
 H                     5.51121  -4.36681   2.64205 
 H                     4.47054  -3.45819   3.75379 
 C                     1.20675  -4.57273   1.89209 
 H                     1.45654  -5.39189   2.58178 
 H                     0.18319  -4.24347   2.11695 
 H                     1.22043  -4.9629    0.86811 
 C                     1.98014  -2.76006   3.42105 
 H                     0.94917  -2.38738   3.49479 
 H                     2.14111  -3.46625   4.24663 
 H                     2.66263  -1.90556   3.54261 
 C                     4.61323   0.58587   4.77032 
 H                     3.66836   1.01045   5.13409 
 H                     4.53694  -0.50642   4.82844 
 H                     5.41538   0.91657   5.44595 
 C                     4.7544    2.57144   3.27697 
 H                     3.73153   2.8596    3.5523 
 H                     5.45149   3.07512   3.96036 
 H                     4.9417    2.92998   2.25579 
 C                     7.38157   1.41591   2.81915 
 H                     7.66244   1.5652    3.87195 
 H                     8.23476   0.95505   2.3032 
 H                     7.20268   2.39437   2.36019 
 C                     6.52885  -0.89329   3.18175 
 H                     7.36454  -1.27879   2.58412 
 H                     6.83608  -0.89728   4.23638 
 H                     5.68144  -1.57586   3.04248 
 C                    -0.73195  -1.15729  -2.31562 
 C                    -0.64863  -0.65335  -3.62005 
 C                     0.40412  -1.09879  -1.49774 
 C                     0.54376  -0.11145  -4.08017 
 C                     1.60303  -0.52533  -1.9286 
 H                     0.34795  -1.49071  -0.48183 
 C                     1.65753  -0.05241  -3.24515 
 H                     0.61081   0.25401  -5.10489 
 H                     3.11998  -1.24176  -1.61915 
 H                    -1.50511  -0.72761  -4.28984 
 H                     2.59258   0.36211  -3.63137 
 C                     1.29716   2.27258   0.06616 
 C                     0.85379   0.60862   1.60977 
 C                    -0.54106   2.55342   1.59004 
 C                    -0.20906   1.34123   2.14909 
 N                     1.58763   1.06448   0.60666 
 C                     1.91115   4.03438  -1.52844 
 C                     0.19636   3.04712   0.49534 
 H                     4.59148   4.04862  -3.62191 
 H                     1.11823  -0.37805   1.98545 
 H                     4.88795   1.80946  -2.50505 
 H                     2.63214   5.46979  -2.97468 
 H                    -1.36703   3.13751   1.98982 
 H                    -0.76423   0.94136   2.99368 
 C                    -0.10531   4.29536  -0.17124 
 C                     0.7544    4.76439  -1.12267 
 H                     0.52921   5.70098  -1.63473 
 C                    -1.98783  -1.74021  -1.80703 
 C                    -1.97168  -2.76167  -0.84346 
 C                    -3.23489  -1.28842  -2.26659 
 C                    -3.14787  -3.30866  -0.35949 
 H                    -1.01482  -3.14163  -0.48665 
 C                    -4.41348  -1.84265  -1.79912 
 H                    -3.27501  -0.47357  -2.98808 
 C                    -4.38299  -2.85743  -0.83809 
 H                    -3.11658  -4.10231   0.38363 
 H                    -5.37841  -1.49523  -2.16419 
 C                    -5.6621   -3.41471  -0.37411 
 O                    -6.75265  -3.10624  -0.83412 
 O                    -5.5237   -4.30384   0.61367 
 C                    -6.72673  -4.87375   1.11966 
 H                    -7.45204  -4.09546   1.38197 
 H                    -7.17664  -5.54304   0.37622 
 H                    -6.43776  -5.44276   2.00512 
 C                    -1.35727   5.02435   0.12717 
 C                    -2.57681   4.34362   0.09134 
 C                    -1.35813   6.39283   0.40972 
 C                    -3.78961   4.98681   0.34753 
 H                    -2.58209   3.276    -0.13048 
 C                    -2.55856   7.04962   0.66103 
 H                    -0.41252   6.93286   0.45296 
 C                    -3.76291   6.35642   0.63613 
 H                    -2.55434   8.1158    0.88172 
 H                    -4.69863   6.88373   0.81958 
 C                    -5.04421   4.21029   0.33782 
 C                    -6.05363   4.45329   1.27553 
 C                    -5.23707   3.16871  -0.57704 
 C                    -7.19413   3.66412   1.31853 
 H                    -5.91761   5.24028   2.01761 
 C                    -6.37973   2.38626  -0.53741 
 H                    -4.48808   2.984    -1.34718 
 C                    -7.37559   2.60414   0.42231 
 H                    -7.94047   3.84102   2.09235 
 C                    -8.56313   1.73137   0.49594 
 C                    -8.45047   0.37242   0.20121 
 C                    -9.81459   2.23685   0.86485 
 C                    -9.55342  -0.4857    0.26317 
 C                    -10.90945   1.38441   0.92892 
 H                    -9.93282   3.30052   1.06766 
 C                    -10.80039   0.02991   0.63614 
 H                    -11.88398   1.78333   1.20764 
 H                    -11.65612  -0.63413   0.68775 
 H                    -6.51784   1.60117  -1.27996 
 N                    -9.32053  -1.82587  -0.05141 
 C                    -10.24537  -2.85433  -0.13662 
 H                    -8.36927  -2.04845  -0.33187 
 O                    -11.42726  -2.74972   0.14987 
 C                    -10.47276  -5.194    -0.82209 
 H                    -11.46094  -5.01732  -0.38814 
 H                    -10.59518  -5.38539  -1.89801 
 H                    -10.03709  -6.08835  -0.35603 
 N                    -9.66872  -4.0281   -0.56151 
 H                    -8.71037  -4.00014  -0.8928 
 H                    -7.47421  -0.0455   -0.05593 
 

 GradGradGradGradGradGradGradGradGradGradGradGradGradGradGradGradGradGrad
 Berny optimization.
 Initialization pass.
 Trust Radius=3.00D-01 FncErr=1.00D-07 GrdErr=1.00D-07 EigMax=2.50D+02 EigMin=1.00D-04
 Number of steps in this run=      2 maximum allowed number of steps=      2.
 GradGradGradGradGradGradGradGradGradGradGradGradGradGradGradGradGradGrad

 Stoichiometry    C64H72B3IrN4O9
 Framework group  C1[X(C64H72B3IrN4O9)]
 Deg. of freedom   453
 Full point group                 C1      NOp   1
 Largest Abelian subgroup         C1      NOp   1
 Largest concise Abelian subgroup C1      NOp   1
                         Standard orientation:                         
 ---------------------------------------------------------------------
 Center     Atomic      Atomic             Coordinates (Angstroms)
 Number     Number       Type             X           Y           Z
 ---------------------------------------------------------------------
      1          6           0        2.166639    2.767779   -0.965109
      2          6           0        4.049279    2.463769   -2.262069
      3          6           0        3.877760    3.716309   -2.872009
      4          6           0        2.804030    4.497709   -2.512679
      5          7           0        3.214269    1.998839   -1.343809
      6         77           0        3.184699   -0.129651   -0.429199
      7          8           0        5.434149   -2.082951   -1.266989
      8          8           0        4.150119   -2.490561    1.294741
      9          8           0        5.802979    0.412729    1.317401
     10          5           0        3.093189   -1.807301    0.708231
     11          5           0        4.999199   -0.775351   -1.142179
     12          5           0        4.424799    0.295559    1.236211
     13          8           0        3.855719    0.517609    2.491141
     14          8           0        5.932379    0.100579   -1.686859
     15          6           0        6.953289   -0.681951   -2.326709
     16          6           0        6.828099   -2.046511   -1.591089
     17          6           0        6.173709    0.507939    2.703311
     18          6           0        4.870619    1.053549    3.351831
     19          6           0        3.655259   -3.750811    1.755711
     20          6           0        2.170239   -3.416081    2.059521
     21          8           0        1.883219   -2.415071    1.065951
     22          6           0        7.174099   -3.259921   -2.429729
     23          1           0        8.219399   -3.217361   -2.768619
     24          1           0        7.051119   -4.169671   -1.827599
     25          1           0        6.523219   -3.347621   -3.306739
     26          6           0        7.587769   -2.084931   -0.271239
     27          1           0        7.234259   -2.952561    0.303751
     28          1           0        8.672709   -2.177071   -0.419749
     29          1           0        7.374579   -1.186771    0.322551
     30          6           0        6.588369   -0.764851   -3.803279
     31          1           0        6.499839    0.253919   -4.204859
     32          1           0        7.350509   -1.295521   -4.389639
     33          1           0        5.622769   -1.269671   -3.943319
     34          6           0        8.286669    0.016099   -2.152379
     35          1           0        9.108859   -0.608351   -2.531019
     36          1           0        8.292119    0.959109   -2.714799
     37          1           0        8.475569    0.251679   -1.099039
     38          6           0        3.828599   -4.734021    0.604071
     39          1           0        4.877799   -4.703321    0.282901
     40          1           0        3.572399   -5.762821    0.892021
     41          1           0        3.218109   -4.442801   -0.261009
     42          6           0        4.469539   -4.204271    2.950211
     43          1           0        4.081279   -5.150741    3.353451
     44          1           0        5.511209   -4.366811    2.642051
     45          1           0        4.470539   -3.458191    3.753791
     46          6           0        1.206749   -4.572731    1.892091
     47          1           0        1.456539   -5.391891    2.581781
     48          1           0        0.183189   -4.243471    2.116951
     49          1           0        1.220429   -4.962901    0.868111
     50          6           0        1.980139   -2.760061    3.421051
     51          1           0        0.949169   -2.387381    3.494791
     52          1           0        2.141109   -3.466251    4.246631
     53          1           0        2.662629   -1.905561    3.542611
     54          6           0        4.613229    0.585869    4.770321
     55          1           0        3.668359    1.010449    5.134091
     56          1           0        4.536939   -0.506421    4.828441
     57          1           0        5.415379    0.916569    5.445951
     58          6           0        4.754399    2.571439    3.276971
     59          1           0        3.731529    2.859599    3.552301
     60          1           0        5.451490    3.075119    3.960361
     61          1           0        4.941700    2.929979    2.255791
     62          6           0        7.381569    1.415909    2.819151
     63          1           0        7.662439    1.565199    3.871951
     64          1           0        8.234759    0.955049    2.303201
     65          1           0        7.202679    2.394369    2.360191
     66          6           0        6.528849   -0.893291    3.181751
     67          1           0        7.364539   -1.278791    2.584121
     68          1           0        6.836079   -0.897281    4.236381
     69          1           0        5.681439   -1.575861    3.042481
     70          6           0       -0.731951   -1.157291   -2.315619
     71          6           0       -0.648631   -0.653351   -3.620049
     72          6           0        0.404119   -1.098791   -1.497739
     73          6           0        0.543759   -0.111451   -4.080169
     74          6           0        1.603029   -0.525331   -1.928599
     75          1           0        0.347949   -1.490711   -0.481829
     76          6           0        1.657529   -0.052411   -3.245149
     77          1           0        0.610809    0.254009   -5.104889
     78          1           0        3.119979   -1.241761   -1.619149
     79          1           0       -1.505111   -0.727611   -4.289839
     80          1           0        2.592579    0.362109   -3.631369
     81          6           0        1.297159    2.272579    0.066161
     82          6           0        0.853789    0.608619    1.609771
     83          6           0       -0.541061    2.553419    1.590041
     84          6           0       -0.209061    1.341229    2.149091
     85          7           0        1.587629    1.064479    0.606661
     86          6           0        1.911150    4.034379   -1.528439
     87          6           0        0.196360    3.047119    0.495341
     88          1           0        4.591480    4.048619   -3.621909
     89          1           0        1.118229   -0.378051    1.985451
     90          1           0        4.887949    1.809459   -2.505049
     91          1           0        2.632140    5.469789   -2.974679
     92          1           0       -1.367030    3.137509    1.989821
     93          1           0       -0.764231    0.941359    2.993681
     94          6           0       -0.105310    4.295359   -0.171239
     95          6           0        0.754400    4.764389   -1.122669
     96          1           0        0.529210    5.700979   -1.634729
     97          6           0       -1.987831   -1.740211   -1.807029
     98          6           0       -1.971681   -2.761671   -0.843459
     99          6           0       -3.234891   -1.288420   -2.266589
    100          6           0       -3.147871   -3.308660   -0.359489
    101          1           0       -1.014821   -3.141631   -0.486649
    102          6           0       -4.413481   -1.842650   -1.799119
    103          1           0       -3.275011   -0.473570   -2.988079
    104          6           0       -4.382991   -2.857430   -0.838089
    105          1           0       -3.116581   -4.102310    0.383631
    106          1           0       -5.378411   -1.495230   -2.164189
    107          6           0       -5.662101   -3.414710   -0.374109
    108          8           0       -6.752651   -3.106240   -0.834119
    109          8           0       -5.523701   -4.303840    0.613671
    110          6           0       -6.726731   -4.873750    1.119661
    111          1           0       -7.452041   -4.095460    1.381971
    112          1           0       -7.176641   -5.543040    0.376221
    113          1           0       -6.437761   -5.442760    2.005121
    114          6           0       -1.357270    5.024349    0.127171
    115          6           0       -2.576810    4.343620    0.091341
    116          6           0       -1.358130    6.392829    0.409721
    117          6           0       -3.789610    4.986810    0.347531
    118          1           0       -2.582090    3.276000   -0.130479
    119          6           0       -2.558560    7.049620    0.661031
    120          1           0       -0.412520    6.932859    0.452961
    121          6           0       -3.762910    6.356420    0.636131
    122          1           0       -2.554340    8.115800    0.881721
    123          1           0       -4.698630    6.883730    0.819581
    124          6           0       -5.044210    4.210290    0.337821
    125          6           0       -6.053630    4.453290    1.275531
    126          6           0       -5.237070    3.168710   -0.577039
    127          6           0       -7.194130    3.664120    1.318531
    128          1           0       -5.917610    5.240280    2.017611
    129          6           0       -6.379731    2.386260   -0.537409
    130          1           0       -4.488080    2.984000   -1.347179
    131          6           0       -7.375591    2.604140    0.422311
    132          1           0       -7.940470    3.841020    2.092351
    133          6           0       -8.563131    1.731370    0.495941
    134          6           0       -8.450471    0.372420    0.201211
    135          6           0       -9.814591    2.236850    0.864851
    136          6           0       -9.553421   -0.485700    0.263171
    137          6           0      -10.909451    1.384410    0.928921
    138          1           0       -9.932820    3.300520    1.067661
    139          6           0      -10.800391    0.029910    0.636141
    140          1           0      -11.883981    1.783330    1.207641
    141          1           0      -11.656121   -0.634130    0.687751
    142          1           0       -6.517841    1.601170   -1.279959
    143          7           0       -9.320531   -1.825870   -0.051409
    144          6           0      -10.245371   -2.854330   -0.136619
    145          1           0       -8.369271   -2.048450   -0.331869
    146          8           0      -11.427261   -2.749720    0.149871
    147          6           0      -10.472761   -5.194000   -0.822089
    148          1           0      -11.460941   -5.017320   -0.388139
    149          1           0      -10.595181   -5.385390   -1.898009
    150          1           0      -10.037091   -6.088350   -0.356029
    151          7           0       -9.668721   -4.028100   -0.561509
    152          1           0       -8.710371   -4.000140   -0.892799
    153          1           0       -7.474211   -0.045500   -0.055929
 ---------------------------------------------------------------------
 Rotational constants (GHZ):           0.0369638           0.0128603           0.0111364
 General basis read from cards:  (5D, 7F)
 ======================================================================================================
                                       Pseudopotential Parameters
 ======================================================================================================
  Center     Atomic      Valence      Angular      Power
  Number     Number     Electrons     Momentum     of R      Exponent        Coefficient   SO-Coeffient
 ======================================================================================================
    1          6
                                   No pseudopotential on this center.
    2          6
                                   No pseudopotential on this center.
    3          6
                                   No pseudopotential on this center.
    4          6
                                   No pseudopotential on this center.
    5          7
                                   No pseudopotential on this center.
    6         77           17
                                      G and up 
                                                     1      823.5880147       -0.15780140    0.00000000
                                                     2      364.6613336    -1517.52704460    0.00000000
                                                     2       55.7082801     -316.53065290    0.00000000
                                                     2       12.0464544      -91.88809410    0.00000000
                                                     2        3.5120610       -9.22417730    0.00000000
                                      S - G
                                                     0      188.0490770        3.15780140    0.00000000
                                                     1      340.4194712       26.83225770    0.00000000
                                                     2      128.2373673      800.42500070    0.00000000
                                                     2       33.8644961      369.40506830    0.00000000
                                                     2        4.7560005      242.41718990    0.00000000
                                                     2        3.9649974     -118.21732820    0.00000000
                                      P - G
                                                     0      289.7291139        2.15780140    0.00000000
                                                     1       87.4633789       61.96786100    0.00000000
                                                     2       30.4363766      269.05819860    0.00000000
                                                     2        4.0553412      231.16547930    0.00000000
                                                     2        3.5525341     -133.69526670    0.00000000
                                      D - G
                                                     0      136.4017106        3.15780140    0.00000000
                                                     1       95.0776925       45.93498030    0.00000000
                                                     2       49.2258410      359.03446680    0.00000000
                                                     2       15.0874145      176.47401190    0.00000000
                                                     2        4.0405764       54.51552860    0.00000000
                                      F - G
                                                     0      127.3507908        3.95461970    0.00000000
                                                     1       66.2364374       52.97736550    0.00000000
                                                     2       34.4299229      274.86433830    0.00000000
                                                     2       10.1995721      137.20473380    0.00000000
                                                     2        2.5409702       14.86333050    0.00000000
    7          8
                                   No pseudopotential on this center.
    8          8
                                   No pseudopotential on this center.
    9          8
                                   No pseudopotential on this center.
   10          5
                                   No pseudopotential on this center.
   11          5
                                   No pseudopotential on this center.
   12          5
                                   No pseudopotential on this center.
   13          8
                                   No pseudopotential on this center.
   14          8
                                   No pseudopotential on this center.
   15          6
                                   No pseudopotential on this center.
   16          6
                                   No pseudopotential on this center.
   17          6
                                   No pseudopotential on this center.
   18          6
                                   No pseudopotential on this center.
   19          6
                                   No pseudopotential on this center.
   20          6
                                   No pseudopotential on this center.
   21          8
                                   No pseudopotential on this center.
   22          6
                                   No pseudopotential on this center.
   23          1
                                   No pseudopotential on this center.
   24          1
                                   No pseudopotential on this center.
   25          1
                                   No pseudopotential on this center.
   26          6
                                   No pseudopotential on this center.
   27          1
                                   No pseudopotential on this center.
   28          1
                                   No pseudopotential on this center.
   29          1
                                   No pseudopotential on this center.
   30          6
                                   No pseudopotential on this center.
   31          1
                                   No pseudopotential on this center.
   32          1
                                   No pseudopotential on this center.
   33          1
                                   No pseudopotential on this center.
   34          6
                                   No pseudopotential on this center.
   35          1
                                   No pseudopotential on this center.
   36          1
                                   No pseudopotential on this center.
   37          1
                                   No pseudopotential on this center.
   38          6
                                   No pseudopotential on this center.
   39          1
                                   No pseudopotential on this center.
   40          1
                                   No pseudopotential on this center.
   41          1
                                   No pseudopotential on this center.
   42          6
                                   No pseudopotential on this center.
   43          1
                                   No pseudopotential on this center.
   44          1
                                   No pseudopotential on this center.
   45          1
                                   No pseudopotential on this center.
   46          6
                                   No pseudopotential on this center.
   47          1
                                   No pseudopotential on this center.
   48          1
                                   No pseudopotential on this center.
   49          1
                                   No pseudopotential on this center.
   50          6
                                   No pseudopotential on this center.
   51          1
                                   No pseudopotential on this center.
   52          1
                                   No pseudopotential on this center.
   53          1
                                   No pseudopotential on this center.
   54          6
                                   No pseudopotential on this center.
   55          1
                                   No pseudopotential on this center.
   56          1
                                   No pseudopotential on this center.
   57          1
                                   No pseudopotential on this center.
   58          6
                                   No pseudopotential on this center.
   59          1
                                   No pseudopotential on this center.
   60          1
                                   No pseudopotential on this center.
   61          1
                                   No pseudopotential on this center.
   62          6
                                   No pseudopotential on this center.
   63          1
                                   No pseudopotential on this center.
   64          1
                                   No pseudopotential on this center.
   65          1
                                   No pseudopotential on this center.
   66          6
                                   No pseudopotential on this center.
   67          1
                                   No pseudopotential on this center.
   68          1
                                   No pseudopotential on this center.
   69          1
                                   No pseudopotential on this center.
   70          6
                                   No pseudopotential on this center.
   71          6
                                   No pseudopotential on this center.
   72          6
                                   No pseudopotential on this center.
   73          6
                                   No pseudopotential on this center.
   74          6
                                   No pseudopotential on this center.
   75          1
                                   No pseudopotential on this center.
   76          6
                                   No pseudopotential on this center.
   77          1
                                   No pseudopotential on this center.
   78          1
                                   No pseudopotential on this center.
   79          1
                                   No pseudopotential on this center.
   80          1
                                   No pseudopotential on this center.
   81          6
                                   No pseudopotential on this center.
   82          6
                                   No pseudopotential on this center.
   83          6
                                   No pseudopotential on this center.
   84          6
                                   No pseudopotential on this center.
   85          7
                                   No pseudopotential on this center.
   86          6
                                   No pseudopotential on this center.
   87          6
                                   No pseudopotential on this center.
   88          1
                                   No pseudopotential on this center.
   89          1
                                   No pseudopotential on this center.
   90          1
                                   No pseudopotential on this center.
   91          1
                                   No pseudopotential on this center.
   92          1
                                   No pseudopotential on this center.
   93          1
                                   No pseudopotential on this center.
   94          6
                                   No pseudopotential on this center.
   95          6
                                   No pseudopotential on this center.
   96          1
                                   No pseudopotential on this center.
   97          6
                                   No pseudopotential on this center.
   98          6
                                   No pseudopotential on this center.
   99          6
                                   No pseudopotential on this center.
  100          6
                                   No pseudopotential on this center.
  101          1
                                   No pseudopotential on this center.
  102          6
                                   No pseudopotential on this center.
  103          1
                                   No pseudopotential on this center.
  104          6
                                   No pseudopotential on this center.
  105          1
                                   No pseudopotential on this center.
  106          1
                                   No pseudopotential on this center.
  107          6
                                   No pseudopotential on this center.
  108          8
                                   No pseudopotential on this center.
  109          8
                                   No pseudopotential on this center.
  110          6
                                   No pseudopotential on this center.
  111          1
                                   No pseudopotential on this center.
  112          1
                                   No pseudopotential on this center.
  113          1
                                   No pseudopotential on this center.
  114          6
                                   No pseudopotential on this center.
  115          6
                                   No pseudopotential on this center.
  116          6
                                   No pseudopotential on this center.
  117          6
                                   No pseudopotential on this center.
  118          1
                                   No pseudopotential on this center.
  119          6
                                   No pseudopotential on this center.
  120          1
                                   No pseudopotential on this center.
  121          6
                                   No pseudopotential on this center.
  122          1
                                   No pseudopotential on this center.
  123          1
                                   No pseudopotential on this center.
  124          6
                                   No pseudopotential on this center.
  125          6
                                   No pseudopotential on this center.
  126          6
                                   No pseudopotential on this center.
  127          6
                                   No pseudopotential on this center.
  128          1
                                   No pseudopotential on this center.
  129          6
                                   No pseudopotential on this center.
  130          1
                                   No pseudopotential on this center.
  131          6
                                   No pseudopotential on this center.
  132          1
                                   No pseudopotential on this center.
  133          6
                                   No pseudopotential on this center.
  134          6
                                   No pseudopotential on this center.
  135          6
                                   No pseudopotential on this center.
  136          6
                                   No pseudopotential on this center.
  137          6
                                   No pseudopotential on this center.
  138          1
                                   No pseudopotential on this center.
  139          6
                                   No pseudopotential on this center.
  140          1
                                   No pseudopotential on this center.
  141          1
                                   No pseudopotential on this center.
  142          1
                                   No pseudopotential on this center.
  143          7
                                   No pseudopotential on this center.
  144          6
                                   No pseudopotential on this center.
  145          1
                                   No pseudopotential on this center.
  146          8
                                   No pseudopotential on this center.
  147          6
                                   No pseudopotential on this center.
  148          1
                                   No pseudopotential on this center.
  149          1
                                   No pseudopotential on this center.
  150          1
                                   No pseudopotential on this center.
  151          7
                                   No pseudopotential on this center.
  152          1
                                   No pseudopotential on this center.
  153          1
                                   No pseudopotential on this center.
 ======================================================================================================
 There are  1368 symmetry adapted cartesian basis functions of A   symmetry.
 There are  1286 symmetry adapted basis functions of A   symmetry.
  1286 basis functions,  2571 primitive gaussians,  1368 cartesian basis functions
   294 alpha electrons      294 beta electrons
       nuclear repulsion energy     14644.7286213825 Hartrees.
 NAtoms=  153 NActive=  153 NUniq=  153 SFac= 1.00D+00 NAtFMM=   60 NAOKFM=T Big=T
 Integral buffers will be    131072 words long.
 Raffenetti 2 integral format.
 Two-electron integral symmetry is turned on.
 One-electron integrals computed using PRISM.
   1 Symmetry operations used in ECPInt.
 ECPInt:  NShTT=  111628 NPrTT=  703187 LenC2=   60041 LenP2D=  178644.
 LDataN:  DoStor=T MaxTD1= 6 Len=  172
 NBasis=  1286 RedAO= T EigKep=  2.35D-04  NBF=  1286
 NBsUse=  1286 1.00D-06 EigRej= -1.00D+00 NBFU=  1286
 Defaulting to unpruned grid for atomic number  77.
 ExpMin= 2.90D-02 ExpMax= 5.48D+03 ExpMxC= 8.25D+02 IAcc=3 IRadAn=         5 AccDes= 0.00D+00
 Harris functional with IExCor= 1009 and IRadAn=       5 diagonalized for initial guess.
 HarFok:  IExCor= 1009 AccDes= 0.00D+00 IRadAn=         5 IDoV= 1 UseB2=F ITyADJ=14
 ICtDFT=  3500011 ScaDFX=  1.000000  1.000000  1.000000  1.000000
 Defaulting to unpruned grid for atomic number  77.
 FoFCou: FMM=F IPFlag=           0 FMFlag=      100000 FMFlg1=        2001
         NFxFlg=           0 DoJE=T BraDBF=F KetDBF=T FulRan=T
         wScrn=  0.000000 ICntrl=       500 IOpCl=  0 I1Cent=   200000004 NGrid=           0
         NMat0=    1 NMatS0=      1 NMatT0=    0 NMatD0=    1 NMtDS0=    0 NMtDT0=    0
 Petite list used in FoFCou.
 Requested convergence on RMS density matrix=1.00D-08 within 128 cycles.
 Requested convergence on MAX density matrix=1.00D-06.
 Requested convergence on             energy=1.00D-06.
 No special actions if energy rises.
 Defaulting to unpruned grid for atomic number  77.
 Defaulting to unpruned grid for atomic number  77.
 Defaulting to unpruned grid for atomic number  77.
 Defaulting to unpruned grid for atomic number  77.
 Defaulting to unpruned grid for atomic number  77.
 Defaulting to unpruned grid for atomic number  77.
 Defaulting to unpruned grid for atomic number  77.
 Defaulting to unpruned grid for atomic number  77.
 Defaulting to unpruned grid for atomic number  77.
 Defaulting to unpruned grid for atomic number  77.
 Defaulting to unpruned grid for atomic number  77.
 Defaulting to unpruned grid for atomic number  77.
 Defaulting to unpruned grid for atomic number  77.
 Defaulting to unpruned grid for atomic number  77.
 Defaulting to unpruned grid for atomic number  77.
 Defaulting to unpruned grid for atomic number  77.
 SCF Done:  E(RM06) =  -3555.46090033     A.U. after   14 cycles
            NFock= 14  Conv=0.89D-08     -V/T= 2.0270
 DoSCS=F DFT=T ScalE2(SS,OS)=  1.000000  1.000000
 Range of M.O.s used for correlation:     1  1286
 NBasis=  1286 NAE=   294 NBE=   294 NFC=     0 NFV=     0
 NROrb=   1286 NOA=   294 NOB=   294 NVA=   992 NVB=   992

 **** Warning!!: The largest alpha MO coefficient is  0.11255572D+02

   1 Symmetry operations used in ECPInt.
 ECPInt:  NShTT=  111628 NPrTT=  703187 LenC2=   60041 LenP2D=  178644.
 LDataN:  DoStor=T MaxTD1= 7 Len=  274
 Number of processors reduced to   4 by ecpmxn.
 Symmetrizing basis deriv contribution to polar:
 IMax=3 JMax=2 DiffMx= 0.00D+00
 G2DrvN: will do   154 centers at a time, making    1 passes.
 Calling FoFCou, ICntrl=  3107 FMM=T I1Cent=   0 AccDes= 0.00D+00.
 Defaulting to unpruned grid for atomic number  77.
 Defaulting to unpruned grid for atomic number  77.
 Defaulting to unpruned grid for atomic number  77.
 Defaulting to unpruned grid for atomic number  77.
 Defaulting to unpruned grid for atomic number  77.
 Defaulting to unpruned grid for atomic number  77.
 Defaulting to unpruned grid for atomic number  77.
 Defaulting to unpruned grid for atomic number  77.
 Defaulting to unpruned grid for atomic number  77.
 Defaulting to unpruned grid for atomic number  77.
 Defaulting to unpruned grid for atomic number  77.
 Defaulting to unpruned grid for atomic number  77.
 Defaulting to unpruned grid for atomic number  77.
 Defaulting to unpruned grid for atomic number  77.
 Defaulting to unpruned grid for atomic number  77.
 Defaulting to unpruned grid for atomic number  77.
 End of G2Drv F.D. properties file   721 does not exist.
 End of G2Drv F.D. properties file   722 does not exist.
 End of G2Drv F.D. properties file   788 does not exist.
          IDoAtm=11111111111111111111111111111111111111111111111111
          IDoAtm=11111111111111111111111111111111111111111111111111
          IDoAtm=11111111111111111111111111111111111111111111111111
          IDoAtm=111
          Differentiating once with respect to electric field.
                with respect to dipole field.
          Differentiating once with respect to nuclear coordinates.
 Defaulting to unpruned grid for atomic number  77.
 CalDSu exits because no D1Ps are significant.
 Defaulting to unpruned grid for atomic number  77.
 Defaulting to unpruned grid for atomic number  77.
 Defaulting to unpruned grid for atomic number  77.
 Defaulting to unpruned grid for atomic number  77.
 Defaulting to unpruned grid for atomic number  77.
 Defaulting to unpruned grid for atomic number  77.
 Defaulting to unpruned grid for atomic number  77.
 Defaulting to unpruned grid for atomic number  77.
 Defaulting to unpruned grid for atomic number  77.
 Defaulting to unpruned grid for atomic number  77.
 Defaulting to unpruned grid for atomic number  77.
 Defaulting to unpruned grid for atomic number  77.
 Defaulting to unpruned grid for atomic number  77.
 Defaulting to unpruned grid for atomic number  77.
 Defaulting to unpruned grid for atomic number  77.
 Defaulting to unpruned grid for atomic number  77.
          There are   462 degrees of freedom in the 1st order CPHF.  IDoFFX=6 NUNeed=     3.
    459 vectors produced by pass  0 Test12= 2.92D-13 1.00D-09 XBig12= 1.10D+03 9.16D+00.
 AX will form    72 AO Fock derivatives at one time.
    459 vectors produced by pass  1 Test12= 2.92D-13 1.00D-09 XBig12= 1.62D+02 1.71D+00.
    459 vectors produced by pass  2 Test12= 2.92D-13 1.00D-09 XBig12= 1.74D+00 9.46D-02.
    459 vectors produced by pass  3 Test12= 2.92D-13 1.00D-09 XBig12= 1.23D-02 5.67D-03.
    459 vectors produced by pass  4 Test12= 2.92D-13 1.00D-09 XBig12= 4.41D-05 2.97D-04.
    429 vectors produced by pass  5 Test12= 2.92D-13 1.00D-09 XBig12= 9.23D-08 1.21D-05.
    129 vectors produced by pass  6 Test12= 2.92D-13 1.00D-09 XBig12= 1.42D-10 4.81D-07.
      3 vectors produced by pass  7 Test12= 2.92D-13 1.00D-09 XBig12= 2.16D-13 2.13D-08.
      1 vectors produced by pass  8 Test12= 2.92D-13 1.00D-09 XBig12= 3.24D-16 1.09D-09.
 InvSVY:  IOpt=1 It=  1 EMax= 1.78D-14
 Solved reduced A of dimension  2857 with   462 vectors.
 Isotropic polarizability for W=    0.000000      860.47 Bohr**3.
 End of Minotr F.D. properties file   721 does not exist.
 End of Minotr F.D. properties file   722 does not exist.
 End of Minotr F.D. properties file   788 does not exist.
 Hyperfine terms turned off by default for NAtoms > 100.

 **********************************************************************

            Population analysis using the SCF Density.

 **********************************************************************

 Orbital symmetries:
       Occupied  (A) (A) (A) (A) (A) (A) (A) (A) (A) (A) (A) (A)
                 (A) (A) (A) (A) (A) (A) (A) (A) (A) (A) (A) (A)
                 (A) (A) (A) (A) (A) (A) (A) (A) (A) (A) (A) (A)
                 (A) (A) (A) (A) (A) (A) (A) (A) (A) (A) (A) (A)
                 (A) (A) (A) (A) (A) (A) (A) (A) (A) (A) (A) (A)
                 (A) (A) (A) (A) (A) (A) (A) (A) (A) (A) (A) (A)
                 (A) (A) (A) (A) (A) (A) (A) (A) (A) (A) (A) (A)
                 (A) (A) (A) (A) (A) (A) (A) (A) (A) (A) (A) (A)
                 (A) (A) (A) (A) (A) (A) (A) (A) (A) (A) (A) (A)
                 (A) (A) (A) (A) (A) (A) (A) (A) (A) (A) (A) (A)
                 (A) (A) (A) (A) (A) (A) (A) (A) (A) (A) (A) (A)
                 (A) (A) (A) (A) (A) (A) (A) (A) (A) (A) (A) (A)
                 (A) (A) (A) (A) (A) (A) (A) (A) (A) (A) (A) (A)
                 (A) (A) (A) (A) (A) (A) (A) (A) (A) (A) (A) (A)
                 (A) (A) (A) (A) (A) (A) (A) (A) (A) (A) (A) (A)
                 (A) (A) (A) (A) (A) (A) (A) (A) (A) (A) (A) (A)
                 (A) (A) (A) (A) (A) (A) (A) (A) (A) (A) (A) (A)
                 (A) (A) (A) (A) (A) (A) (A) (A) (A) (A) (A) (A)
                 (A) (A) (A) (A) (A) (A) (A) (A) (A) (A) (A) (A)
                 (A) (A) (A) (A) (A) (A) (A) (A) (A) (A) (A) (A)
                 (A) (A) (A) (A) (A) (A) (A) (A) (A) (A) (A) (A)
                 (A) (A) (A) (A) (A) (A) (A) (A) (A) (A) (A) (A)
                 (A) (A) (A) (A) (A) (A) (A) (A) (A) (A) (A) (A)
                 (A) (A) (A) (A) (A) (A) (A) (A) (A) (A) (A) (A)
                 (A) (A) (A) (A) (A) (A)
       Virtual   (A) (A) (A) (A) (A) (A) (A) (A) (A) (A) (A) (A)
                 (A) (A) (A) (A) (A) (A) (A) (A) (A) (A) (A) (A)
                 (A) (A) (A) (A) (A) (A) (A) (A) (A) (A) (A) (A)
                 (A) (A) (A) (A) (A) (A) (A) (A) (A) (A) (A) (A)
                 (A) (A) (A) (A) (A) (A) (A) (A) (A) (A) (A) (A)
                 (A) (A) (A) (A) (A) (A) (A) (A) (A) (A) (A) (A)
                 (A) (A) (A) (A) (A) (A) (A) (A) (A) (A) (A) (A)
                 (A) (A) (A) (A) (A) (A) (A) (A) (A) (A) (A) (A)
                 (A) (A) (A) (A) (A) (A) (A) (A) (A) (A) (A) (A)
                 (A) (A) (A) (A) (A) (A) (A) (A) (A) (A) (A) (A)
                 (A) (A) (A) (A) (A) (A) (A) (A) (A) (A) (A) (A)
                 (A) (A) (A) (A) (A) (A) (A) (A) (A) (A) (A) (A)
                 (A) (A) (A) (A) (A) (A) (A) (A) (A) (A) (A) (A)
                 (A) (A) (A) (A) (A) (A) (A) (A) (A) (A) (A) (A)
                 (A) (A) (A) (A) (A) (A) (A) (A) (A) (A) (A) (A)
                 (A) (A) (A) (A) (A) (A) (A) (A) (A) (A) (A) (A)
                 (A) (A) (A) (A) (A) (A) (A) (A) (A) (A) (A) (A)
                 (A) (A) (A) (A) (A) (A) (A) (A) (A) (A) (A) (A)
                 (A) (A) (A) (A) (A) (A) (A) (A) (A) (A) (A) (A)
                 (A) (A) (A) (A) (A) (A) (A) (A) (A) (A) (A) (A)
                 (A) (A) (A) (A) (A) (A) (A) (A) (A) (A) (A) (A)
                 (A) (A) (A) (A) (A) (A) (A) (A) (A) (A) (A) (A)
                 (A) (A) (A) (A) (A) (A) (A) (A) (A) (A) (A) (A)
                 (A) (A) (A) (A) (A) (A) (A) (A) (A) (A) (A) (A)
                 (A) (A) (A) (A) (A) (A) (A) (A) (A) (A) (A) (A)
                 (A) (A) (A) (A) (A) (A) (A) (A) (A) (A) (A) (A)
                 (A) (A) (A) (A) (A) (A) (A) (A) (A) (A) (A) (A)
                 (A) (A) (A) (A) (A) (A) (A) (A) (A) (A) (A) (A)
                 (A) (A) (A) (A) (A) (A) (A) (A) (A) (A) (A) (A)
                 (A) (A) (A) (A) (A) (A) (A) (A) (A) (A) (A) (A)
                 (A) (A) (A) (A) (A) (A) (A) (A) (A) (A) (A) (A)
                 (A) (A) (A) (A) (A) (A) (A) (A) (A) (A) (A) (A)
                 (A) (A) (A) (A) (A) (A) (A) (A) (A) (A) (A) (A)
                 (A) (A) (A) (A) (A) (A) (A) (A) (A) (A) (A) (A)
                 (A) (A) (A) (A) (A) (A) (A) (A) (A) (A) (A) (A)
                 (A) (A) (A) (A) (A) (A) (A) (A) (A) (A) (A) (A)
                 (A) (A) (A) (A) (A) (A) (A) (A) (A) (A) (A) (A)
                 (A) (A) (A) (A) (A) (A) (A) (A) (A) (A) (A) (A)
                 (A) (A) (A) (A) (A) (A) (A) (A) (A) (A) (A) (A)
                 (A) (A) (A) (A) (A) (A) (A) (A) (A) (A) (A) (A)
                 (A) (A) (A) (A) (A) (A) (A) (A) (A) (A) (A) (A)
                 (A) (A) (A) (A) (A) (A) (A) (A) (A) (A) (A) (A)
                 (A) (A) (A) (A) (A) (A) (A) (A) (A) (A) (A) (A)
                 (A) (A) (A) (A) (A) (A) (A) (A) (A) (A) (A) (A)
                 (A) (A) (A) (A) (A) (A) (A) (A) (A) (A) (A) (A)
                 (A) (A) (A) (A) (A) (A) (A) (A) (A) (A) (A) (A)
                 (A) (A) (A) (A) (A) (A) (A) (A) (A) (A) (A) (A)
                 (A) (A) (A) (A) (A) (A) (A) (A) (A) (A) (A) (A)
                 (A) (A) (A) (A) (A) (A) (A) (A) (A) (A) (A) (A)
                 (A) (A) (A) (A) (A) (A) (A) (A) (A) (A) (A) (A)
                 (A) (A) (A) (A) (A) (A) (A) (A) (A) (A) (A) (A)
                 (A) (A) (A) (A) (A) (A) (A) (A) (A) (A) (A) (A)
                 (A) (A) (A) (A) (A) (A) (A) (A) (A) (A) (A) (A)
                 (A) (A) (A) (A) (A) (A) (A) (A) (A) (A) (A) (A)
                 (A) (A) (A) (A) (A) (A) (A) (A) (A) (A) (A) (A)
                 (A) (A) (A) (A) (A) (A) (A) (A) (A) (A) (A) (A)
                 (A) (A) (A) (A) (A) (A) (A) (A) (A) (A) (A) (A)
                 (A) (A) (A) (A) (A) (A) (A) (A) (A) (A) (A) (A)
                 (A) (A) (A) (A) (A) (A) (A) (A) (A) (A) (A) (A)
                 (A) (A) (A) (A) (A) (A) (A) (A) (A) (A) (A) (A)
                 (A) (A) (A) (A) (A) (A) (A) (A) (A) (A) (A) (A)
                 (A) (A) (A) (A) (A) (A) (A) (A) (A) (A) (A) (A)
                 (A) (A) (A) (A) (A) (A) (A) (A) (A) (A) (A) (A)
                 (A) (A) (A) (A) (A) (A) (A) (A) (A) (A) (A) (A)
                 (A) (A) (A) (A) (A) (A) (A) (A) (A) (A) (A) (A)
                 (A) (A) (A) (A) (A) (A) (A) (A) (A) (A) (A) (A)
                 (A) (A) (A) (A) (A) (A) (A) (A) (A) (A) (A) (A)
                 (A) (A) (A) (A) (A) (A) (A) (A) (A) (A) (A) (A)
                 (A) (A) (A) (A) (A) (A) (A) (A) (A) (A) (A) (A)
                 (A) (A) (A) (A) (A) (A) (A) (A) (A) (A) (A) (A)
                 (A) (A) (A) (A) (A) (A) (A) (A) (A) (A) (A) (A)
                 (A) (A) (A) (A) (A) (A) (A) (A) (A) (A) (A) (A)
                 (A) (A) (A) (A) (A) (A) (A) (A) (A) (A) (A) (A)
                 (A) (A) (A) (A) (A) (A) (A) (A) (A) (A) (A) (A)
                 (A) (A) (A) (A) (A) (A) (A) (A) (A) (A) (A) (A)
                 (A) (A) (A) (A) (A) (A) (A) (A) (A) (A) (A) (A)
                 (A) (A) (A) (A) (A) (A) (A) (A) (A) (A) (A) (A)
                 (A) (A) (A) (A) (A) (A) (A) (A) (A) (A) (A) (A)
                 (A) (A) (A) (A) (A) (A) (A) (A) (A) (A) (A) (A)
                 (A) (A) (A) (A) (A) (A) (A) (A) (A) (A) (A) (A)
                 (A) (A) (A) (A) (A) (A) (A) (A) (A) (A) (A) (A)
                 (A) (A) (A) (A) (A) (A) (A) (A) (A) (A) (A) (A)
                 (A) (A) (A) (A) (A) (A) (A) (A)
 The electronic state is 1-A.
 Alpha  occ. eigenvalues --  -19.29158 -19.23658 -19.21019 -19.20368 -19.20307
 Alpha  occ. eigenvalues --  -19.20209 -19.20104 -19.19750 -19.17457 -14.44976
 Alpha  occ. eigenvalues --  -14.44494 -14.41485 -14.40466 -10.40190 -10.36296
 Alpha  occ. eigenvalues --  -10.31585 -10.31308 -10.31282 -10.30565 -10.30212
 Alpha  occ. eigenvalues --  -10.29818 -10.29456 -10.29425 -10.29395 -10.29213
 Alpha  occ. eigenvalues --  -10.29194 -10.29027 -10.29011 -10.28980 -10.28979
 Alpha  occ. eigenvalues --  -10.28745 -10.28545 -10.27882 -10.27765 -10.27726
 Alpha  occ. eigenvalues --  -10.27662 -10.27274 -10.27198 -10.26802 -10.26540
 Alpha  occ. eigenvalues --  -10.26496 -10.26474 -10.26419 -10.26324 -10.26302
 Alpha  occ. eigenvalues --  -10.26289 -10.26266 -10.26015 -10.25645 -10.25464
 Alpha  occ. eigenvalues --  -10.25436 -10.25338 -10.25163 -10.25114 -10.25061
 Alpha  occ. eigenvalues --  -10.24897 -10.24131 -10.23905 -10.23849 -10.23818
 Alpha  occ. eigenvalues --  -10.23713 -10.23512 -10.23422 -10.23293 -10.23100
 Alpha  occ. eigenvalues --  -10.23093 -10.23089 -10.22971 -10.22852 -10.22785
 Alpha  occ. eigenvalues --  -10.22776 -10.22734 -10.22664 -10.22598 -10.22178
 Alpha  occ. eigenvalues --  -10.21808 -10.21492  -6.80534  -6.80173  -6.79699
 Alpha  occ. eigenvalues --   -3.64130  -2.06842  -2.06242  -2.04920  -1.14862
 Alpha  occ. eigenvalues --   -1.06626  -1.06247  -1.06103  -1.05681  -1.04931
 Alpha  occ. eigenvalues --   -1.00204  -0.99606  -0.99255  -0.99147  -0.97567
 Alpha  occ. eigenvalues --   -0.94455  -0.91292  -0.90255  -0.88572  -0.88484
 Alpha  occ. eigenvalues --   -0.87068  -0.85152  -0.84739  -0.84342  -0.83634
 Alpha  occ. eigenvalues --   -0.80917  -0.80760  -0.80460  -0.80289  -0.80271
 Alpha  occ. eigenvalues --   -0.79279  -0.78155  -0.76834  -0.76514  -0.75970
 Alpha  occ. eigenvalues --   -0.75793  -0.75370  -0.75224  -0.74900  -0.74738
 Alpha  occ. eigenvalues --   -0.74638  -0.73618  -0.72372  -0.72040  -0.70793
 Alpha  occ. eigenvalues --   -0.70473  -0.70311  -0.69291  -0.69091  -0.68058
 Alpha  occ. eigenvalues --   -0.67923  -0.67662  -0.67472  -0.67142  -0.65243
 Alpha  occ. eigenvalues --   -0.64937  -0.63791  -0.63403  -0.63020  -0.62198
 Alpha  occ. eigenvalues --   -0.61980  -0.61672  -0.61570  -0.61307  -0.59974
 Alpha  occ. eigenvalues --   -0.59948  -0.59656  -0.58731  -0.57791  -0.57632
 Alpha  occ. eigenvalues --   -0.57260  -0.57103  -0.55782  -0.55145  -0.55049
 Alpha  occ. eigenvalues --   -0.54757  -0.54633  -0.54464  -0.54132  -0.54032
 Alpha  occ. eigenvalues --   -0.53388  -0.53303  -0.53192  -0.51656  -0.51578
 Alpha  occ. eigenvalues --   -0.51381  -0.50999  -0.50790  -0.49877  -0.49798
 Alpha  occ. eigenvalues --   -0.48690  -0.48545  -0.47992  -0.47851  -0.47471
 Alpha  occ. eigenvalues --   -0.47365  -0.47232  -0.47004  -0.46832  -0.46737
 Alpha  occ. eigenvalues --   -0.46522  -0.46445  -0.46414  -0.46081  -0.46008
 Alpha  occ. eigenvalues --   -0.45745  -0.45504  -0.45301  -0.44909  -0.44618
 Alpha  occ. eigenvalues --   -0.44575  -0.44527  -0.44476  -0.44329  -0.43995
 Alpha  occ. eigenvalues --   -0.43909  -0.43894  -0.43849  -0.43678  -0.43608
 Alpha  occ. eigenvalues --   -0.43538  -0.43309  -0.43174  -0.42980  -0.42933
 Alpha  occ. eigenvalues --   -0.42800  -0.42319  -0.42102  -0.41706  -0.41341
 Alpha  occ. eigenvalues --   -0.41104  -0.40862  -0.40553  -0.40408  -0.40202
 Alpha  occ. eigenvalues --   -0.40159  -0.40035  -0.39911  -0.39840  -0.39741
 Alpha  occ. eigenvalues --   -0.39536  -0.39363  -0.39301  -0.39163  -0.39049
 Alpha  occ. eigenvalues --   -0.38892  -0.38795  -0.38722  -0.38491  -0.38307
 Alpha  occ. eigenvalues --   -0.38162  -0.37998  -0.37905  -0.37854  -0.37551
 Alpha  occ. eigenvalues --   -0.37419  -0.37262  -0.36933  -0.36829  -0.36716
 Alpha  occ. eigenvalues --   -0.36441  -0.36392  -0.36304  -0.36255  -0.36042
 Alpha  occ. eigenvalues --   -0.36023  -0.35877  -0.35659  -0.35410  -0.35356
 Alpha  occ. eigenvalues --   -0.35013  -0.34846  -0.34732  -0.34546  -0.34496
 Alpha  occ. eigenvalues --   -0.33945  -0.33626  -0.33582  -0.33341  -0.33183
 Alpha  occ. eigenvalues --   -0.32983  -0.32693  -0.32176  -0.31755  -0.31574
 Alpha  occ. eigenvalues --   -0.31512  -0.31406  -0.31253  -0.30664  -0.30108
 Alpha  occ. eigenvalues --   -0.30056  -0.29898  -0.29321  -0.28486  -0.28313
 Alpha  occ. eigenvalues --   -0.27963  -0.27327  -0.27097  -0.26981  -0.26421
 Alpha  occ. eigenvalues --   -0.26408  -0.26304  -0.26146  -0.25989  -0.25758
 Alpha  occ. eigenvalues --   -0.25330  -0.24756  -0.23731  -0.23452  -0.22712
 Alpha  occ. eigenvalues --   -0.22608  -0.22249  -0.21115  -0.20818
 Alpha virt. eigenvalues --   -0.06947  -0.06866  -0.05462  -0.03598  -0.02593
 Alpha virt. eigenvalues --   -0.00997  -0.00392   0.00076   0.00659   0.01106
 Alpha virt. eigenvalues --    0.01208   0.01588   0.01958   0.03002   0.03608
 Alpha virt. eigenvalues --    0.04882   0.05427   0.05987   0.06304   0.06732
 Alpha virt. eigenvalues --    0.06863   0.07399   0.08622   0.09194   0.09383
 Alpha virt. eigenvalues --    0.09484   0.09597   0.09704   0.09968   0.10153
 Alpha virt. eigenvalues --    0.10402   0.10873   0.11062   0.11428   0.11663
 Alpha virt. eigenvalues --    0.11800   0.12137   0.12409   0.12539   0.12617
 Alpha virt. eigenvalues --    0.12840   0.12931   0.13126   0.13370   0.13631
 Alpha virt. eigenvalues --    0.13791   0.14157   0.14244   0.14399   0.14628
 Alpha virt. eigenvalues --    0.14684   0.14873   0.14976   0.15172   0.15423
 Alpha virt. eigenvalues --    0.15628   0.15736   0.15809   0.15815   0.15937
 Alpha virt. eigenvalues --    0.16011   0.16347   0.16387   0.16555   0.16764
 Alpha virt. eigenvalues --    0.16825   0.17020   0.17134   0.17215   0.17362
 Alpha virt. eigenvalues --    0.17536   0.17666   0.17704   0.17897   0.17912
 Alpha virt. eigenvalues --    0.18329   0.18472   0.18640   0.18828   0.19148
 Alpha virt. eigenvalues --    0.19250   0.19313   0.19404   0.19619   0.19848
 Alpha virt. eigenvalues --    0.19952   0.20016   0.20062   0.20272   0.20282
 Alpha virt. eigenvalues --    0.20313   0.20461   0.20644   0.20725   0.20967
 Alpha virt. eigenvalues --    0.21274   0.21344   0.21622   0.21863   0.22369
 Alpha virt. eigenvalues --    0.22604   0.22638   0.22790   0.23122   0.23297
 Alpha virt. eigenvalues --    0.23369   0.23619   0.23892   0.24310   0.24474
 Alpha virt. eigenvalues --    0.24606   0.24767   0.24887   0.25042   0.25219
 Alpha virt. eigenvalues --    0.25328   0.25509   0.25603   0.25760   0.26173
 Alpha virt. eigenvalues --    0.26378   0.26511   0.26759   0.26856   0.26981
 Alpha virt. eigenvalues --    0.27248   0.27421   0.27624   0.27780   0.27987
 Alpha virt. eigenvalues --    0.28002   0.28292   0.28678   0.29077   0.29406
 Alpha virt. eigenvalues --    0.29493   0.29614   0.29996   0.30171   0.30474
 Alpha virt. eigenvalues --    0.31029   0.31159   0.31210   0.31258   0.31568
 Alpha virt. eigenvalues --    0.31929   0.32232   0.32698   0.32769   0.33106
 Alpha virt. eigenvalues --    0.33408   0.33529   0.34468   0.34498   0.34736
 Alpha virt. eigenvalues --    0.35134   0.35665   0.35701   0.36093   0.36643
 Alpha virt. eigenvalues --    0.36783   0.36993   0.37695   0.37823   0.38654
 Alpha virt. eigenvalues --    0.38804   0.39215   0.39654   0.40275   0.40663
 Alpha virt. eigenvalues --    0.40877   0.41273   0.41525   0.42139   0.42521
 Alpha virt. eigenvalues --    0.43215   0.43819   0.44796   0.45277   0.46301
 Alpha virt. eigenvalues --    0.47013   0.48149   0.48209   0.48632   0.49030
 Alpha virt. eigenvalues --    0.49269   0.49558   0.49716   0.49783   0.49893
 Alpha virt. eigenvalues --    0.50412   0.50607   0.50661   0.50724   0.50807
 Alpha virt. eigenvalues --    0.51014   0.51225   0.51505   0.51976   0.52035
 Alpha virt. eigenvalues --    0.52346   0.52481   0.52761   0.52903   0.52993
 Alpha virt. eigenvalues --    0.53225   0.53408   0.53688   0.53986   0.54109
 Alpha virt. eigenvalues --    0.54298   0.54584   0.54679   0.55123   0.55210
 Alpha virt. eigenvalues --    0.55257   0.55480   0.55589   0.55844   0.55985
 Alpha virt. eigenvalues --    0.56112   0.56262   0.56485   0.56569   0.56731
 Alpha virt. eigenvalues --    0.56782   0.56896   0.57041   0.57149   0.57340
 Alpha virt. eigenvalues --    0.57427   0.57699   0.57714   0.57896   0.58093
 Alpha virt. eigenvalues --    0.58251   0.58384   0.58529   0.58637   0.58797
 Alpha virt. eigenvalues --    0.58921   0.59066   0.59094   0.59145   0.59347
 Alpha virt. eigenvalues --    0.59458   0.59621   0.59729   0.59902   0.60031
 Alpha virt. eigenvalues --    0.60096   0.60332   0.60464   0.60514   0.60711
 Alpha virt. eigenvalues --    0.60890   0.61007   0.61252   0.61332   0.61485
 Alpha virt. eigenvalues --    0.61700   0.61864   0.61960   0.62150   0.62362
 Alpha virt. eigenvalues --    0.62547   0.62695   0.62720   0.63252   0.63307
 Alpha virt. eigenvalues --    0.63612   0.63722   0.63917   0.64233   0.64386
 Alpha virt. eigenvalues --    0.64599   0.64809   0.64937   0.65029   0.65269
 Alpha virt. eigenvalues --    0.65413   0.65566   0.65907   0.65992   0.66439
 Alpha virt. eigenvalues --    0.66517   0.66839   0.67156   0.67218   0.67324
 Alpha virt. eigenvalues --    0.67532   0.67784   0.67978   0.68122   0.68320
 Alpha virt. eigenvalues --    0.68651   0.68710   0.68899   0.69140   0.69436
 Alpha virt. eigenvalues --    0.69533   0.69767   0.69827   0.70227   0.70424
 Alpha virt. eigenvalues --    0.70768   0.71210   0.71374   0.71533   0.71765
 Alpha virt. eigenvalues --    0.71918   0.72178   0.72311   0.72723   0.73116
 Alpha virt. eigenvalues --    0.73479   0.74062   0.74151   0.74333   0.74503
 Alpha virt. eigenvalues --    0.74819   0.75324   0.75518   0.76050   0.76206
 Alpha virt. eigenvalues --    0.76350   0.76581   0.76716   0.77002   0.77171
 Alpha virt. eigenvalues --    0.77452   0.77786   0.77937   0.78208   0.78447
 Alpha virt. eigenvalues --    0.78753   0.78860   0.78917   0.79087   0.79266
 Alpha virt. eigenvalues --    0.79416   0.80097   0.80196   0.80263   0.80566
 Alpha virt. eigenvalues --    0.80652   0.80791   0.80984   0.81236   0.81379
 Alpha virt. eigenvalues --    0.81586   0.81955   0.82062   0.82078   0.82389
 Alpha virt. eigenvalues --    0.82678   0.82815   0.82991   0.83054   0.83276
 Alpha virt. eigenvalues --    0.83342   0.83409   0.83690   0.83959   0.84020
 Alpha virt. eigenvalues --    0.84279   0.84386   0.84711   0.84949   0.85223
 Alpha virt. eigenvalues --    0.85388   0.85575   0.85735   0.85781   0.86085
 Alpha virt. eigenvalues --    0.86209   0.86472   0.86753   0.86965   0.86983
 Alpha virt. eigenvalues --    0.87251   0.87357   0.87853   0.88116   0.88205
 Alpha virt. eigenvalues --    0.88411   0.88677   0.88881   0.89051   0.89210
 Alpha virt. eigenvalues --    0.89293   0.89429   0.89495   0.89727   0.89786
 Alpha virt. eigenvalues --    0.90100   0.90236   0.90522   0.90562   0.90833
 Alpha virt. eigenvalues --    0.91113   0.91336   0.91484   0.91910   0.92151
 Alpha virt. eigenvalues --    0.92217   0.92232   0.92468   0.92578   0.92744
 Alpha virt. eigenvalues --    0.93080   0.93408   0.93815   0.93843   0.94212
 Alpha virt. eigenvalues --    0.94360   0.94464   0.94808   0.94897   0.95116
 Alpha virt. eigenvalues --    0.95321   0.95582   0.95783   0.95905   0.96117
 Alpha virt. eigenvalues --    0.96191   0.96557   0.96831   0.96925   0.97756
 Alpha virt. eigenvalues --    0.97914   0.98056   0.98415   0.98480   0.98766
 Alpha virt. eigenvalues --    0.98946   0.99014   0.99312   0.99684   1.00088
 Alpha virt. eigenvalues --    1.00233   1.00569   1.00763   1.00982   1.01072
 Alpha virt. eigenvalues --    1.01650   1.01845   1.02109   1.02316   1.02510
 Alpha virt. eigenvalues --    1.02747   1.03616   1.03764   1.03915   1.04338
 Alpha virt. eigenvalues --    1.04544   1.04665   1.04930   1.05205   1.05432
 Alpha virt. eigenvalues --    1.06020   1.06208   1.06448   1.06858   1.07412
 Alpha virt. eigenvalues --    1.07581   1.07894   1.08671   1.08932   1.09371
 Alpha virt. eigenvalues --    1.09564   1.09724   1.10383   1.10483   1.10553
 Alpha virt. eigenvalues --    1.11041   1.11400   1.12036   1.12850   1.13017
 Alpha virt. eigenvalues --    1.13275   1.13735   1.13811   1.14094   1.14594
 Alpha virt. eigenvalues --    1.15181   1.15455   1.15778   1.15934   1.16049
 Alpha virt. eigenvalues --    1.16475   1.16607   1.16860   1.17174   1.17329
 Alpha virt. eigenvalues --    1.17729   1.18045   1.18640   1.18839   1.19368
 Alpha virt. eigenvalues --    1.19390   1.20143   1.20459   1.20490   1.20629
 Alpha virt. eigenvalues --    1.21121   1.21785   1.22216   1.22315   1.22579
 Alpha virt. eigenvalues --    1.22824   1.23439   1.23794   1.24314   1.24901
 Alpha virt. eigenvalues --    1.25286   1.25359   1.25778   1.26517   1.26757
 Alpha virt. eigenvalues --    1.26841   1.27641   1.28151   1.28508   1.28801
 Alpha virt. eigenvalues --    1.28960   1.29684   1.29980   1.30380   1.30472
 Alpha virt. eigenvalues --    1.31003   1.31212   1.31709   1.31849   1.32090
 Alpha virt. eigenvalues --    1.32289   1.32874   1.33332   1.33570   1.34049
 Alpha virt. eigenvalues --    1.34247   1.34491   1.35001   1.35310   1.35924
 Alpha virt. eigenvalues --    1.36377   1.36967   1.37076   1.37535   1.37702
 Alpha virt. eigenvalues --    1.38409   1.38690   1.39284   1.39618   1.39842
 Alpha virt. eigenvalues --    1.40388   1.40935   1.41150   1.41418   1.41680
 Alpha virt. eigenvalues --    1.42514   1.42632   1.43010   1.43151   1.43472
 Alpha virt. eigenvalues --    1.43861   1.44191   1.44635   1.44774   1.44815
 Alpha virt. eigenvalues --    1.45514   1.45789   1.45921   1.46276   1.46537
 Alpha virt. eigenvalues --    1.46722   1.46948   1.47438   1.47649   1.47880
 Alpha virt. eigenvalues --    1.48274   1.48380   1.48571   1.48785   1.49039
 Alpha virt. eigenvalues --    1.49200   1.49226   1.49482   1.49999   1.50307
 Alpha virt. eigenvalues --    1.50481   1.50715   1.50849   1.51228   1.51510
 Alpha virt. eigenvalues --    1.51643   1.51793   1.52384   1.52858   1.53184
 Alpha virt. eigenvalues --    1.53451   1.53738   1.54306   1.54783   1.55695
 Alpha virt. eigenvalues --    1.56368   1.56856   1.57738   1.58691   1.58774
 Alpha virt. eigenvalues --    1.59031   1.60027   1.60673   1.61674   1.62269
 Alpha virt. eigenvalues --    1.62377   1.62810   1.63431   1.64595   1.64732
 Alpha virt. eigenvalues --    1.65769   1.65988   1.66601   1.66797   1.67170
 Alpha virt. eigenvalues --    1.67733   1.68783   1.69155   1.69599   1.69768
 Alpha virt. eigenvalues --    1.70228   1.70669   1.71493   1.71748   1.72190
 Alpha virt. eigenvalues --    1.72840   1.73476   1.73669   1.73982   1.74531
 Alpha virt. eigenvalues --    1.75047   1.75311   1.75758   1.76008   1.76185
 Alpha virt. eigenvalues --    1.76390   1.76755   1.76959   1.77129   1.77480
 Alpha virt. eigenvalues --    1.77826   1.78321   1.78571   1.79056   1.79465
 Alpha virt. eigenvalues --    1.79752   1.79979   1.80322   1.80550   1.81174
 Alpha virt. eigenvalues --    1.81190   1.81404   1.81623   1.82161   1.82378
 Alpha virt. eigenvalues --    1.82630   1.82657   1.83114   1.83320   1.83518
 Alpha virt. eigenvalues --    1.83985   1.84049   1.84514   1.84989   1.85177
 Alpha virt. eigenvalues --    1.85676   1.85744   1.85940   1.86337   1.86426
 Alpha virt. eigenvalues --    1.86723   1.86846   1.87261   1.87468   1.87580
 Alpha virt. eigenvalues --    1.87940   1.88294   1.88785   1.89063   1.89308
 Alpha virt. eigenvalues --    1.89385   1.89832   1.89942   1.90213   1.90393
 Alpha virt. eigenvalues --    1.90636   1.90962   1.91172   1.91274   1.91416
 Alpha virt. eigenvalues --    1.91611   1.91860   1.92097   1.92419   1.92699
 Alpha virt. eigenvalues --    1.92795   1.92970   1.93234   1.93469   1.93817
 Alpha virt. eigenvalues --    1.94195   1.94313   1.94450   1.94898   1.95308
 Alpha virt. eigenvalues --    1.96094   1.96245   1.96548   1.96606   1.96806
 Alpha virt. eigenvalues --    1.97290   1.98166   1.98592   1.98816   1.99484
 Alpha virt. eigenvalues --    2.00198   2.00979   2.01115   2.01458   2.01828
 Alpha virt. eigenvalues --    2.02180   2.02435   2.02623   2.02967   2.03092
 Alpha virt. eigenvalues --    2.03113   2.03598   2.03813   2.04202   2.04452
 Alpha virt. eigenvalues --    2.04808   2.05581   2.05750   2.06093   2.06299
 Alpha virt. eigenvalues --    2.06687   2.06861   2.07106   2.07272   2.07607
 Alpha virt. eigenvalues --    2.07916   2.08189   2.08255   2.08530   2.08833
 Alpha virt. eigenvalues --    2.09382   2.09422   2.09828   2.09971   2.10223
 Alpha virt. eigenvalues --    2.10440   2.10656   2.10779   2.11200   2.11535
 Alpha virt. eigenvalues --    2.11946   2.12072   2.12507   2.12724   2.13136
 Alpha virt. eigenvalues --    2.13226   2.13608   2.13739   2.14307   2.14442
 Alpha virt. eigenvalues --    2.14942   2.15362   2.15474   2.15506   2.16170
 Alpha virt. eigenvalues --    2.16409   2.16764   2.16827   2.17445   2.17641
 Alpha virt. eigenvalues --    2.18149   2.18228   2.18522   2.18672   2.18984
 Alpha virt. eigenvalues --    2.19275   2.19397   2.19556   2.19796   2.19920
 Alpha virt. eigenvalues --    2.20078   2.20355   2.20757   2.20947   2.21279
 Alpha virt. eigenvalues --    2.21586   2.21976   2.22223   2.22854   2.23196
 Alpha virt. eigenvalues --    2.23406   2.23821   2.24053   2.24174   2.24276
 Alpha virt. eigenvalues --    2.24664   2.25226   2.25397   2.25502   2.26034
 Alpha virt. eigenvalues --    2.26162   2.26305   2.26705   2.26918   2.27388
 Alpha virt. eigenvalues --    2.27858   2.28067   2.28084   2.28226   2.28472
 Alpha virt. eigenvalues --    2.28773   2.29091   2.29205   2.29331   2.29615
 Alpha virt. eigenvalues --    2.29931   2.30491   2.30540   2.30826   2.31335
 Alpha virt. eigenvalues --    2.31686   2.31946   2.32282   2.32375   2.32626
 Alpha virt. eigenvalues --    2.32812   2.33140   2.33739   2.33819   2.34228
 Alpha virt. eigenvalues --    2.34240   2.34583   2.35258   2.36261   2.36434
 Alpha virt. eigenvalues --    2.36714   2.37183   2.37745   2.37935   2.38741
 Alpha virt. eigenvalues --    2.39332   2.39494   2.40101   2.40478   2.41747
 Alpha virt. eigenvalues --    2.41805   2.43862   2.44273   2.44398   2.45264
 Alpha virt. eigenvalues --    2.45510   2.46801   2.47525   2.48194   2.48326
 Alpha virt. eigenvalues --    2.48519   2.48780   2.49185   2.49446   2.49601
 Alpha virt. eigenvalues --    2.50957   2.51796   2.52442   2.52771   2.54430
 Alpha virt. eigenvalues --    2.55658   2.55768   2.56535   2.57284   2.57826
 Alpha virt. eigenvalues --    2.58439   2.58781   2.59042   2.59201   2.59651
 Alpha virt. eigenvalues --    2.59944   2.60134   2.60495   2.60553   2.61115
 Alpha virt. eigenvalues --    2.62100   2.62626   2.62774   2.63089   2.63410
 Alpha virt. eigenvalues --    2.64126   2.64465   2.64799   2.65107   2.65213
 Alpha virt. eigenvalues --    2.65337   2.66412   2.66713   2.66961   2.67400
 Alpha virt. eigenvalues --    2.67640   2.68540   2.69272   2.69689   2.70395
 Alpha virt. eigenvalues --    2.70760   2.73108   2.73327   2.73720   2.74814
 Alpha virt. eigenvalues --    2.75092   2.75541   2.76536   2.77642   2.77766
 Alpha virt. eigenvalues --    2.78069   2.78175   2.78459   2.79004   2.79107
 Alpha virt. eigenvalues --    2.79742   2.80071   2.80108   2.80670   2.80752
 Alpha virt. eigenvalues --    2.80996   2.81311   2.81751   2.81904   2.82369
 Alpha virt. eigenvalues --    2.82572   2.83252   2.83632   2.84232   2.84346
 Alpha virt. eigenvalues --    2.85147   2.85847   2.86660   2.87250   2.87555
 Alpha virt. eigenvalues --    2.88138   2.89853   2.90413   2.91142   2.91929
 Alpha virt. eigenvalues --    2.94889   2.95237   2.95645   2.96110   2.96223
 Alpha virt. eigenvalues --    2.97107   2.97386   2.98527   3.00180   3.00347
 Alpha virt. eigenvalues --    3.01327   3.02577   3.04225   3.04971   3.05912
 Alpha virt. eigenvalues --    3.06400   3.08281   3.10143   3.11312   3.11601
 Alpha virt. eigenvalues --    3.11899   3.13537   3.15293   3.16489   3.16866
 Alpha virt. eigenvalues --    3.23467   3.25046   3.31445   3.31847   3.33801
 Alpha virt. eigenvalues --    3.34565   3.39458   3.43866   3.44978   3.47628
 Alpha virt. eigenvalues --    3.50199  13.65776
          Condensed to atoms (all electrons):
 Mulliken charges:
               1
     1  C    0.246504
     2  C    0.035911
     3  C   -0.183518
     4  C   -0.186978
     5  N   -0.482406
     6  Ir  -0.256971
     7  O   -0.499501
     8  O   -0.516728
     9  O   -0.509360
    10  B    0.494520
    11  B    0.544949
    12  B    0.531972
    13  O   -0.533460
    14  O   -0.527201
    15  C    0.299966
    16  C    0.290918
    17  C    0.290042
    18  C    0.297966
    19  C    0.291597
    20  C    0.303960
    21  O   -0.540422
    22  C   -0.512468
    23  H    0.148150
    24  H    0.167647
    25  H    0.170182
    26  C   -0.502321
    27  H    0.159615
    28  H    0.141278
    29  H    0.185583
    30  C   -0.511877
    31  H    0.155707
    32  H    0.154924
    33  H    0.179028
    34  C   -0.505788
    35  H    0.149355
    36  H    0.159803
    37  H    0.178400
    38  C   -0.504804
    39  H    0.174792
    40  H    0.144428
    41  H    0.181611
    42  C   -0.507984
    43  H    0.151926
    44  H    0.170280
    45  H    0.160497
    46  C   -0.513273
    47  H    0.154056
    48  H    0.160750
    49  H    0.174945
    50  C   -0.513875
    51  H    0.156827
    52  H    0.155526
    53  H    0.176570
    54  C   -0.507761
    55  H    0.165171
    56  H    0.164609
    57  H    0.151557
    58  C   -0.510509
    59  H    0.166076
    60  H    0.150451
    61  H    0.174983
    62  C   -0.506580
    63  H    0.148288
    64  H    0.163895
    65  H    0.169952
    66  C   -0.500919
    67  H    0.160715
    68  H    0.143675
    69  H    0.179915
    70  C    0.094218
    71  C   -0.207975
    72  C   -0.212279
    73  C   -0.147255
    74  C   -0.095810
    75  H    0.158298
    76  C   -0.167892
    77  H    0.145793
    78  H    0.234741
    79  H    0.143702
    80  H    0.135280
    81  C    0.253012
    82  C    0.084861
    83  C   -0.177189
    84  C   -0.183752
    85  N   -0.514833
    86  C    0.165607
    87  C    0.106824
    88  H    0.181300
    89  H    0.201092
    90  H    0.216220
    91  H    0.179432
    92  H    0.191261
    93  H    0.183969
    94  C    0.034893
    95  C   -0.269680
    96  H    0.169678
    97  C    0.098012
    98  C   -0.200216
    99  C   -0.204557
   100  C   -0.175157
   101  H    0.175624
   102  C   -0.173516
   103  H    0.157879
   104  C    0.025928
   105  H    0.177740
   106  H    0.177883
   107  C    0.600311
   108  O   -0.515538
   109  O   -0.474502
   110  C   -0.258771
   111  H    0.194206
   112  H    0.178559
   113  H    0.195766
   114  C    0.048508
   115  C   -0.234471
   116  C   -0.184709
   117  C    0.081602
   118  H    0.164272
   119  C   -0.167853
   120  H    0.159534
   121  C   -0.190048
   122  H    0.165337
   123  H    0.162273
   124  C    0.080899
   125  C   -0.198289
   126  C   -0.198835
   127  C   -0.198794
   128  H    0.153174
   129  C   -0.194836
   130  H    0.156219
   131  C    0.083808
   132  H    0.158868
   133  C    0.089195
   134  C   -0.281883
   135  C   -0.197463
   136  C    0.359480
   137  C   -0.178400
   138  H    0.143382
   139  C   -0.176586
   140  H    0.155148
   141  H    0.203978
   142  H    0.154422
   143  N   -0.788322
   144  C    0.766399
   145  H    0.383808
   146  O   -0.527287
   147  C   -0.359638
   148  H    0.217744
   149  H    0.171204
   150  H    0.158542
   151  N   -0.664010
   152  H    0.360425
   153  H    0.135269
 Sum of Mulliken charges =  -0.00000
 Mulliken charges with hydrogens summed into heavy atoms:
               1
     1  C    0.246504
     2  C    0.252132
     3  C   -0.002218
     4  C   -0.007546
     5  N   -0.482406
     6  Ir  -0.022230
     7  O   -0.499501
     8  O   -0.516728
     9  O   -0.509360
    10  B    0.494520
    11  B    0.544949
[...]
 026,-0.00000029,-0.00000049,-0.00000053,-0.00000043,-0.00000022,0.0000
 0036,0.00000035,-0.00000015,-0.00000005,-0.00000018,-0.00000028,-0.000
 00004,-0.00000053,0.00000013,0.00000001,0.00000015,-0.00000004,-0.0000
 0041,0.00000037,0.00000037,-0.00000032,-0.00000073,0.00000031,-0.00000
 005,0.00000025,-0.00000021,0.00000010,-0.00000057,0.00000003,0.0000001
 2,0.00000066,-0.00001737,-0.00000974,0.00000587,-0.00000760,0.00000752
 ,-0.00000807,-0.00000028,-0.00001009,0.00000327,-0.00000609,-0.0000038
 8,-0.00000746,0.00000377,0.00001010,0.00001567,0.00000318,0.00000245,0
 .00000260,-0.00001134,-0.00000568,0.00000128,-0.00000144,-0.00000071,0
 .00000171,0.00001619,-0.00000078,0.00000886,0.00000061,0.00000202,-0.0
 0000308,-0.00000308,0.00000019,0.00000216,0.00000037,0.00000498,-0.000
 00185,-0.00000425,0.00000199,0.00000256,-0.00000422,0.00000483,0.00000
 370,0.00000506,-0.00000475,-0.00000344,0.00000509,-0.00000730,0.000002
 25,-0.00000599,0.00000446,0.00000384,0.00000701,-0.00000113,-0.0000042
 0,0.00000068,0.00000009,0.00000021,0.00000101,0.00000192,0.00000113,-0
 .00000022,0.00000182,-0.00000023,-0.00000018,-0.00000003,0.00000095,-0
 .00000042,0.00000167,-0.00000479,0.00000006,0.00000157,0.00000085,-0.0
 0001812,0.00001230,0.00000139,0.00000903,-0.00000451,-0.00000353,-0.00
 000126,-0.00000088,0.00000316,0.00004299,0.00001470,0.00001085,-0.0000
 0868,-0.00003075,0.00003166,-0.00011449,-0.00004265,-0.00002224,0.0000
 4105,-0.00000755,0.00002303,-0.00000671,0.00000083,-0.00000219,0.00009
 548,-0.00028203,-0.00025842,0.00000459,-0.00000307,0.00000057,-0.00009
 026,-0.00010425,-0.00006347,0.00001497,-0.00000154,0.00000139,0.000416
 04,0.00002969,-0.00003179,0.00098270,-0.00012368,0.00024960,-0.0006115
 4,0.00041119,-0.00011873,-0.00012821,0.00013565,-0.00023014,-0.0000336
 8,-0.00007551,0.00002968,-0.00001577,-0.00002210,0.00001370,0.00000167
 ,0.00000741,0.00001370,-0.00001028,0.00001281,-0.00000481,-0.00000923,
 0.00000223,-0.00000111,0.00003144,0.00001148,0.00000462,0.00001952,0.0
 0001005,-0.00000276,-0.00004657,-0.00005000,-0.00002276,-0.00000561,-0
 .00000165,0.00000129,-0.00000004,-0.00000980,0.00000517,0.00000245,0.0
 0000196,0.00000086,0.00001560,0.00001281,0.00000075,0.00000128,0.00000
 214,0.00000040,-0.00000025,-0.00000575,-0.00000114,-0.00004401,0.00007
 916,-0.00003682,-0.00004842,-0.00006407,0.00000759,0.00001699,-0.00023
 413,-0.00023759,0.00028278,0.00014806,0.00012735,0.00000210,0.00003860
 ,-0.00001579,-0.00016868,-0.00086154,0.00071130,0.00006450,-0.00002713
 ,0.00004199,-0.00029211,-0.00067080,-0.00075168,-0.00001478,-0.0000315
 1,-0.00002551,-0.00085719,0.00003357,0.00058713,-0.27212884,0.09014265
 ,0.06014500,0.00209908,-0.00001995,0.00079817,-0.01812248,0.01393522,0
 .00705209,0.00028499,-0.00083237,-0.00036350,0.00000177,-0.00009033,0.
 00019781,-0.00206289,-0.00455950,0.00063955,-0.00009265,0.00008594,-0.
 00014655,-0.00092738,0.00088761,0.00032104,-0.00024738,-0.00123911,0.0
 0030940,0.00170218,0.00194654,-0.00053069,-0.00050826,-0.00041588,-0.0
 0013184,-0.00063100,-0.00201276,-0.00017731,0.00071636,-0.00008032,-0.
 00013706,-0.00000251,-0.00004633,-0.00000315,0.00000878,0.00000687,-0.
 00000016,-0.00000074,0.00000529,0.00000450,-0.00000546,0.00000079,0.00
 000006,0.00010479,-0.00007854,-0.00002547,-0.00005462,-0.00009040,-0.0
 0001901,0.29037446,-0.00000335,-0.00000482,0.00000737,0.00000413,-0.00
 000213,-0.00000236,0.00000101,-0.00000364,0.00000103,0.00000313,-0.000
 00645,0.00000161,0.00000839,-0.00000350,-0.00000724,-0.00000969,-0.000
 00955,-0.00000143,0.00000888,-0.00001127,-0.00000295,-0.00000016,-0.00
 001719,0.00000821,0.00000836,-0.00000232,0.00000369,0.00000018,0.00002
 515,-0.00001080,-0.00000812,0.00001622,0.00000163,-0.00001229,0.000006
 17,-0.00000441,0.00000751,-0.00000389,0.00000139,0.00001035,-0.0000102
 9,-0.00000251,-0.00000550,0.00000426,0.00000447,-0.00000375,0.00000164
 ,0.00000077,-0.00000276,0.00000175,-0.00000279,-0.00000261,0.00000180,
 -0.00000321,0.00000313,0.00000764,-0.00000186,0.00000107,0.00001124,-0
 .00000347,-0.00000650,-0.00002260,0.00000564,0.00000029,-0.00000033,0.
 00000025,0.00000038,-0.00000005,-0.00000033,-0.00000004,-0.00000075,0.
 00000062,-0.00000013,0.00000040,-0.00000040,0.00000060,0.00000012,-0.0
 0000039,-0.00000034,-0.00000038,0.00000054,0.00000077,0.00000002,0.000
 00002,-0.00000069,0.00000009,-0.00000018,0.00000083,0.00000072,-0.0000
 0102,-0.00000063,-0.00000061,0.00000079,0.00000080,-0.00000064,-0.0000
 0059,-0.00000031,0.00000041,0.00000037,0.00000067,0.00000002,-0.000000
 64,0.00000086,-0.00000054,-0.00000032,-0.00000050,-0.00000011,0.000000
 60,-0.00000045,0.00000029,-0.00000010,0.00000059,-0.00000075,-0.000000
 28,-0.00000051,0.00000037,-0.00000042,0.00000002,-0.00000188,0.0000005
 5,0.00000044,0.00000099,-0.00000018,0.00000018,-0.00000043,0.00000026,
 -0.00000024,-0.00000112,0.00000069,0.00000016,0.00000044,-0.00000009,-
 0.00000001,0.00000003,-0.00000081,0.00000058,-0.00000189,0.00000012,-0
 .00000017,-0.00000105,0.00000030,-0.00000137,0.00000227,0.00000200,0.0
 0000168,-0.00000109,-0.00000179,-0.00000144,-0.00000167,0.00000066,0.0
 0000155,0.00000205,-0.00000027,0.00000095,-0.00000119,0.00000092,-0.00
 000200,-0.00000038,-0.00000114,-0.00000094,0.00000016,0.00000057,0.000
 00033,-0.00000005,-0.00000084,-0.00000005,-0.00000094,0.00000013,0.000
 00061,0.00000026,0.00000031,-0.00000087,-0.00000030,0.00000029,0.00000
 116,-0.00000017,-0.00000167,0.00000068,-0.00000003,0.00000060,-0.00000
 131,-0.00000010,0.00000073,0.00000042,-0.00000001,-0.00000017,-0.00000
 010,0.00000024,0.00000049,0.00000064,-0.00000031,-0.00000051,-0.000000
 52,-0.00000066,0.00000026,0.00000077,-0.00000062,-0.00000020,0.0000006
 0,-0.00000031,-0.00000042,0.00000004,-0.00000003,0.00000070,-0.0000002
 8,0.00000057,0.00000010,-0.00001272,-0.00000609,0.00000394,-0.00000926
 ,0.00000138,-0.00001179,-0.00000081,-0.00001344,0.00000317,-0.00000755
 ,-0.00000672,-0.00000521,0.00000205,0.00000996,0.00001380,0.00000334,0
 .00000441,0.00000346,-0.00001102,-0.00000799,0.00000337,-0.00000302,-0
 .00000003,0.00000270,0.00001187,0.00000109,0.00000648,0.00000084,0.000
 00595,-0.00000056,-0.00000238,0.00000127,0.00000281,-0.00000257,0.0000
 0747,-0.00000349,-0.00001103,0.00000645,0.00000317,-0.00000624,0.00001
 088,0.00000680,0.00001105,-0.00000747,-0.00000209,0.00001068,-0.000013
 85,-0.00000049,-0.00001136,0.00001069,0.00000381,0.00001390,-0.0000052
 8,-0.00000668,0.00000140,-0.00000003,-0.00000080,-0.00000015,0.0000040
 2,0.00000089,-0.00000222,0.00000402,-0.00000110,-0.00000158,0.00000007
 ,0.00000102,-0.00000320,-0.00000128,-0.00000964,-0.00000339,0.00000214
 ,-0.00000263,-0.00003092,0.00002154,0.00000141,0.00001715,-0.00000687,
 -0.00000312,-0.00000338,-0.00000250,0.00000385,0.00000951,0.00002646,-
 0.00004155,-0.00004516,-0.00005814,0.00005147,-0.00001906,0.00002940,-
 0.00003016,0.00008256,-0.00003151,0.00002159,-0.00000784,0.00000235,0.
 00000450,-0.00002351,0.00022962,0.00012655,-0.00001715,-0.00000250,0.0
 0003345,-0.00021812,0.00000055,0.00007294,0.00001129,0.00000092,0.0000
 0119,-0.00034994,0.00037120,0.00009949,0.00098366,-0.00021886,0.000277
 26,-0.00072562,0.00057668,0.00013701,-0.00011785,0.00009912,-0.0001861
 8,-0.00002734,-0.00006246,0.00002820,-0.00000070,0.00000035,0.00001616
 ,0.00000799,-0.00000093,0.00000920,-0.00000820,0.00001118,-0.00000537,
 -0.00002013,0.00000642,0.00001177,0.00003972,-0.00000451,0.00000769,0.
 00002760,0.00001682,-0.00000235,-0.00008800,-0.00002052,0.00005070,-0.
 00002589,0.00000449,-0.00000609,0.00000044,-0.00000577,-0.00000085,0.0
 0000617,0.00000539,-0.00000061,0.00004736,0.00001423,-0.00000776,0.000
 00555,0.00000776,0.00000198,-0.00000437,-0.00001499,-0.00000049,-0.000
 08880,0.00012705,0.00025684,0.00026111,0.00023651,-0.00001470,-0.00046
 112,0.00004564,0.00009073,-0.00016721,-0.00021960,-0.00021265,0.000010
 81,0.00000054,0.00002599,-0.00031097,-0.00071403,-0.00040364,0.0000000
 8,-0.00004105,-0.00000654,0.00141225,0.00137864,0.00075183,0.00002601,
 0.00006567,0.00011764,0.02765302,-0.00632513,-0.00686903,0.09099949,-0
 .09474282,-0.02905941,-0.00127891,-0.00513959,-0.00177768,-0.01651543,
 0.00776583,0.00389200,-0.00056276,-0.00100492,0.00005194,0.00147703,-0
 .00041526,-0.00058176,-0.00303165,-0.00168477,-0.00065753,0.00010407,0
 .00004795,0.00014655,-0.00082081,0.00037543,0.00025391,-0.00069909,-0.
 00096761,0.00125359,-0.00122336,0.00215370,0.00143451,-0.00052544,-0.0
 0024431,0.00019569,-0.00021607,-0.00104764,-0.00050172,0.00029535,-0.0
 0003605,-0.00009263,-0.00005701,-0.00004972,-0.00002555,0.00000657,-0.
 00000449,-0.00000267,0.00000686,0.00001708,0.00001521,0.00000530,0.000
 02308,0.00000302,0.00008007,0.00018595,0.00002192,-0.00001891,-0.00004
 831,-0.00003492,-0.09583805,0.09929046,-0.00000182,-0.00000199,0.00000
 383,0.00000046,0.00000100,-0.00000076,0.00000144,-0.00000142,-0.000000
 96,-0.00000109,-0.00000269,0.00000165,0.00000174,0.00000240,-0.0000032
 4,-0.00000796,-0.00000051,-0.00001004,0.00000333,-0.00000131,-0.000002
 95,0.00000329,0.00000370,-0.00000469,0.00000234,-0.00000043,-0.0000038
 2,-0.00000662,-0.00000848,0.00001048,-0.00000329,0.00000131,0.00000421
 ,-0.00000299,0.00000005,0.00000810,0.00000317,-0.00000033,-0.00000769,
 0.00000473,-0.00000090,-0.00000379,-0.00000186,0.00000124,0.00000283,-
 0.00000157,0.00000005,0.00000143,-0.00000126,0.,0.00000135,-0.00000045
 ,-0.00000025,0.00000137,-0.00000391,-0.00000039,0.00000151,0.00000008,
 -0.00000361,0.00000797,0.00000661,0.00000635,-0.00001234,0.00000019,-0
 .00000036,0.00000017,0.00000033,0.,-0.00000010,-0.00000006,0.00000020,
 -0.00000004,-0.00000026,-0.00000004,-0.00000029,0.,-0.00000031,-0.0000
 0016,-0.00000003,0.00000064,-0.00000018,0.00000038,0.00000001,-0.00000
 012,-0.00000038,-0.00000015,0.00000016,0.00000023,0.00000022,-0.000000
 69,-0.00000005,0.00000042,0.00000012,0.00000032,-0.00000033,-0.0000002
 4,-0.00000017,-0.00000020,0.00000042,0.00000022,-0.00000007,-0.0000003
 1,0.00000030,-0.00000022,0.,-0.00000009,0.00000036,0.00000001,-0.00000
 032,-0.00000013,-0.00000019,0.00000159,-0.00000010,-0.00000014,0.00000
 092,-0.00000024,-0.00000022,-0.00000031,0.00000034,0.00000010,-0.00000
 056,0.00000007,0.00000009,0.00000036,-0.00000001,-0.00000023,-0.000000
 33,0.00000068,0.00000005,0.00000080,-0.00000027,-0.00000032,-0.0000008
 6,-0.00000053,-0.00000047,-0.00000263,0.00000181,0.00000065,-0.0000007
 1,0.00000064,-0.00000030,0.00000165,-0.00000064,0.00000186,0.00000139,
 -0.00000135,-0.00000135,-0.00000383,0.00000089,-0.00000148,0.00000231,
 -0.00000141,0.00000102,-0.00000068,0.00000035,-0.00000087,0.00000032,-
 0.00000017,0.00000007,-0.00000085,0.00000022,0.,0.00000062,-0.00000105
 ,-0.00000034,-0.00000063,0.00000052,0.00000012,0.00000037,0.00000023,-
 0.00000010,-0.00000092,0.00000026,-0.00000024,0.00000057,-0.00000040,-
 0.00000007,0.00000010,-0.00000015,0.00000029,0.00000001,0.00000024,-0.
 00000046,0.00000018,0.00000004,-0.00000030,-0.00000028,-0.00000005,-0.
 00000005,0.00000046,-0.00000031,-0.00000015,-0.00000024,0.00000020,0.0
 0000011,0.,0.00000002,-0.00000026,0.00000050,-0.00000014,-0.00000021,-
 0.00000039,0.00000003,-0.00000017,-0.00000005,0.00000019,0.00000028,-0
 .00000041,0.00000779,-0.00000795,0.00000337,0.00000070,0.00000651,-0.0
 0000752,-0.00000264,-0.00000005,0.00000066,0.00000133,-0.00000199,0.00
 000151,0.00000394,0.00000331,0.00000024,0.00000237,0.00000123,-0.00000
 411,-0.00000105,-0.00000214,0.00000065,0.00000041,-0.00000160,0.000008
 21,-0.00000077,0.00000482,-0.00000216,-0.00000147,-0.00000469,-0.00000
 079,0.00000065,0.00000054,-0.00000227,0.00000179,-0.00000045,-0.000004
 62,0.00000299,0.00000179,-0.00000178,0.00000162,0.00000300,-0.00000343
 ,-0.00000122,0.00001121,0.00000784,0.00000006,-0.00000589,-0.00000022,
 0.00000422,-0.00000220,0.00000465,-0.00000686,0.00000002,0.00000082,0.
 00000018,-0.00000009,-0.00000201,0.00000156,0.00000107,0.00000013,0.00
 000040,0.00000007,0.00000012,0.00000109,0.00000025,-0.00000207,-0.0000
 0750,0.00000230,-0.00000511,0.00000092,-0.00000713,0.00000162,-0.00000
 133,0.00000026,-0.00000016,0.00000088,-0.00000172,0.00000067,0.0000012
 2,0.00000019,0.00001568,-0.00003423,0.00000940,-0.00000488,0.00003843,
 -0.00003673,-0.00004186,0.00004012,-0.00003300,-0.00005538,-0.00000144
 ,-0.00005005,-0.00000284,0.00000724,0.00000138,0.00020513,0.00013140,0
 .00026835,0.00001940,0.00001509,0.00000533,-0.00005741,0.00002767,-0.0
 0000859,-0.00001989,0.00001494,-0.00000209,-0.00020175,-0.00004751,-0.
 00013474,-0.00009396,-0.00002214,0.00031596,-0.00006287,0.00007243,-0.
 00026961,0.00001080,0.00010163,-0.00020748,-0.00008217,0.00003558,0.00
 004759,0.00003929,0.00001295,0.00000722,0.00001709,-0.00001873,-0.0000
 1574,0.00000675,0.00000267,-0.00000554,0.00000109,0.00001031,-0.000002
 81,-0.00000215,0.00000045,-0.00001661,0.00001201,-0.00000456,-0.000002
 66,-0.00000328,-0.00006439,0.00002499,0.00000342,-0.00000314,0.0000108
 9,-0.00001122,-0.00000930,0.00000125,-0.00000002,-0.00000035,0.0000003
 2,0.00000331,0.00000957,-0.00000572,-0.00000084,0.00000035,0.00000084,
 -0.00000122,0.00000049,0.00000040,-0.00017822,0.00030998,0.00037474,0.
 00057390,-0.00006402,-0.00021607,-0.00043564,-0.00048902,-0.00038726,-
 0.00062088,-0.00077734,-0.00022970,-0.00002518,-0.00001816,-0.00001128
 ,0.00028482,0.00136670,0.00038274,0.00002348,0.00002566,-0.00000456,0.
 00078504,0.00160039,-0.00343219,-0.00001922,0.00002395,-0.00003682,0.0
 0507069,-0.00306457,0.00000246,0.05946952,-0.02795501,-0.04749276,0.00
 058510,-0.00218770,0.00522244,0.00211231,-0.00137550,0.00315069,-0.000
 34850,-0.00004068,-0.00024111,0.00048776,-0.00026155,0.00066938,0.0009
 4669,-0.00010503,0.00500422,-0.00013508,0.00017264,-0.00083678,0.00005
 025,-0.00012680,0.00002530,0.00090933,0.00105647,-0.00056136,-0.001413
 99,0.00042663,-0.00322084,-0.00003333,0.00034411,-0.00079855,0.0003013
 2,-0.00012615,0.00090909,-0.00010601,-0.00004063,0.00017400,0.00002484
 ,-0.00002223,0.00008512,0.00000185,-0.00000198,0.00000305,0.00000927,0
 .00000853,-0.00000826,-0.00001660,-0.00000897,-0.00000285,-0.00000452,
 -0.00002792,0.00003719,-0.00000201,-0.00001569,0.00003180,-0.06797694,
 0.03105331,0.04151505\\-0.00000328,0.00000736,-0.00000130,-0.00000999,
 0.00001121,0.00000485,0.00001156,-0.00000565,-0.00000353,-0.00001078,0
 .00001233,0.00000313,0.00000538,-0.00000491,0.00000044,0.00000407,0.00
 000492,-0.00000215,0.00000155,0.00000475,-0.00000156,0.00000150,-0.000
 00252,0.00000023,-0.00000179,0.00000216,-0.00000297,-0.00000048,-0.000
 00130,0.00000126,-0.00000091,0.00000447,-0.00000066,-0.00000316,-0.000
 00008,-0.00000185,0.00000130,-0.00000098,0.00000049,-0.00000256,-0.000
 00086,0.00000225,0.00000274,0.00000215,0.00000002,-0.00000045,0.000004
 73,0.00000316,0.00000467,-0.00000255,0.00000579,0.00000005,0.00000326,
 -0.00000125,0.00000094,0.00000545,-0.00000091,0.00000618,0.00000097,-0
 .00000002,-0.00000154,0.00000165,-0.00000304,0.00000504,0.00000518,-0.
 00000658,-0.00000191,0.00000169,0.00000012,-0.00000050,-0.00000130,0.0
 0000068,0.00000067,0.00000096,0.00000038,-0.00000661,0.00000049,0.0000
 0053,0.00000207,0.00000391,-0.00000288,0.00000503,0.00000063,-0.000000
 73,0.00000049,0.00000059,-0.00000047,-0.00000101,0.00000426,-0.0000029
 7,-0.00000010,0.00000129,-0.00000009,0.00000128,0.00000206,-0.00000029
 ,-0.00000091,0.00000192,-0.00000007,-0.00000095,0.00000910,-0.00000046
 ,0.00000066,0.00000111,-0.00000025,0.00000014,-0.00000211,0.00000230,0
 .00000023,0.00000097,-0.00000084,0.00000374,-0.00000524,-0.00000386,-0
 .00000211,0.00000057,0.00000032,0.00000198,0.00000391,-0.00000187,-0.0
 0000007,0.00000119,-0.00000156,0.00000170,-0.00000589,-0.00000481,0.00
 000210,0.00000306,-0.00000168,-0.00000127,0.00000070,0.00000022,0.0000
 0059,0.00000138,0.00000150,-0.00000356,-0.00000118,0.00000204,0.000001
 02,0.00000076,-0.00000214,0.00000257,-0.00000098,-0.00000153,0.0000012
 0,-0.00000053,-0.00000316,-0.00000661,-0.00000128,-0.00000305,0.000005
 00,-0.00000228,-0.00000028,0.00000072,0.00000011,-0.00000038,0.0000013
 3,-0.00000014,-0.00000031,-0.00000224,-0.00000027,-0.00000227,0.000000
 74,-0.00000123,0.00000022,0.00000009,-0.00000027,0.00000074,0.00000085
 ,-0.00000043,0.00000120,-0.00000349,0.00000125,0.00000753,0.00000307,-
 0.00000065,-0.00000004,-0.00000277,-0.00000114,-0.00000226,0.00000059,
 -0.00000017,0.00000009,0.00000053,-0.00000210,-0.00000204,-0.00000036,
 0.00000011,-0.00000065,-0.00000383,0.00000325,0.00000284,0.00000050,-0
 .00000029,0.00000097,0.00000190,0.00000393,0.00000245,0.00000022,0.000
 00069,-0.00000069,-0.00000075,-0.00000023,-0.00000235,-0.00000079,-0.0
 0000060,-0.00000052,0.00000196,0.00000188,-0.00000098,0.00000172,0.000
 00240,0.00000050,0.,-0.00000012,0.00000090,0.00000012,-0.00000021,0.00
 000483,0.00000205,0.00000347,0.00000061,-0.00000012,0.00000074,-0.0000
 0198,-0.00000114,0.00000164,-0.00000219,0.00000026,0.00000251,-0.00000
 220,0.00000032,0.00000015,-0.00000112,-0.00000203,0.00000046,-0.000001
 61,-0.00000061,0.00000102,0.00000091,-0.00000296,0.00000241,0.00000369
 ,-0.00000483,0.00000909,-0.00000195,0.00000652,0.00000202,-0.00000722,
 0.00000243,-0.00000476,0.00000048,-0.00000182,0.00000058,0.00000106,-0
 .00000661,0.00000258,0.00000433,-0.00000249,-0.00000492,0.00000501,-0.
 00000254,0.00000106,0.00000274,0.00000202,-0.00000702,0.00000270,0.000
 00418,-0.00000290,-0.00000120,0.00000044,-0.00000301,0.00000293,-0.000
 00360,0.00000104,0.00000274,-0.00000039,-0.00000127,0.00000082,-0.0000
 0561,-0.00000219,0.00000695,0.00000777,-0.00000019,-0.00000192,-0.0000
 0131,0.00000103,0.00000082,-0.00000384,0.00000292,-0.00000462,0.000004
 11,-0.00000519,0.00000355,0.00000748,0.00000458,-0.00000501,-0.0000004
 0,-0.00000221,0.00000147,-0.00000264,0.00000152,-0.00000216,-0.0000047
 2,0.00000152,-0.00000067,-0.00000089,-0.00000326,0.00000322,0.00000339
 ,-0.00000371,-0.00000053,0.00000103,0.00000156,-0.00000321,0.00000101,
 -0.00000070,-0.00000047,0.00000755,-0.00000154,-0.00000015,-0.00000523
 ,-0.00000118,-0.00000317,0.00000468,0.00000174,-0.00000561,0.00000163,
 -0.00000916,0.00000450,-0.00000002,-0.00000007,-0.00000112,-0.00000060
 ,-0.00000137,-0.00000202,-0.00000149,0.00000119,-0.00000433,-0.0000024
 7,-0.00000417,0.00000190,-0.00000406,-0.00000262,0.00000081,-0.0000024
 3,0.00000391,0.00000485,0.00000350,-0.00000262,0.00000393,0.00000010,0
 .00000283,0.00000138,0.00000535,0.00000592,0.00000444,-0.00000267,-0.0
 0000109,0.00000098,-0.00000863,-0.00000378,0.00000221,-0.00000137,-0.0
 0000440,0.00000087,0.00000012,-0.00000074,0.00000151,-0.00000075,-0.00
 000368,-0.00000158,-0.00000575,-0.00000495,0.00000310,-0.00001128,-0.0
 0000499,0.00000534,0.00000111,0.00000305,0.00000703,-0.00000122,-0.000
 00055,0.00000157,0.00000508,0.00000332,0.00000177,0.00000329,-0.000000
 70,-0.00000256,0.00000080,-0.00000573,-0.00000249,0.00000043,-0.000001
 92,-0.00000102,-0.00000043,0.00000142,0.00000348,0.00000108,-0.0000017
 8,-0.00000055,0.00000081,0.00000095,0.00000002,0.00000106,-0.00000701,
 -0.00000138,-0.00000940,-0.00000176,0.00000439,-0.00000012,-0.00000353
 ,0.00000037,-0.00000113,-0.00000438,-0.00000108,0.00000462,-0.00000358
 ,-0.00000106,0.00000029,-0.00000088,0.00000019,-0.00000024,-0.00000046
 ,0.00000028,0.00000414,-0.00000666,-0.00000215,0.00001238,-0.00000238,
 -0.00000481,-0.00000506,0.00000062,0.00000128,-0.00000757,-0.00000426,
 0.00000071,-0.00000153,-0.00000292,-0.00000385,0.00000244,-0.00000145,
 -0.00000114,0.00000078,-0.00000010,-0.00000015,0.00000164,-0.00000061,
 -0.00000068,-0.00000581,-0.00000437,-0.00000019,0.00000595,0.00000050,
 -0.00000218,0.00000097,-0.00000191,-0.00000031\\\@
 The archive entry for this job was punched.


 We find comfort among those who agree with us -- growth among those who don't.
 -- Frank A. Clark
 Job cpu time:       3 days 20 hours 42 minutes 25.3 seconds.
 Elapsed time:       0 days  5 hours 56 minutes 25.8 seconds.
 File lengths (MBytes):  RWF=  27779 Int=      0 D2E=      0 Chk=    114 Scr=      1
 Normal termination of Gaussian 16 at Sun Dec  8 04:10:38 2024.
