/mnt/lustre/scratch/nvme/SLURM/9664123/usccqdma.WphZIwTvYG
OMP_STACKSIZE=0m
GAUSS_PDEF=16
GAUSS_MDEF=65536MB
GAUSS_RDEF=SCF=Direct
 Entering Gaussian System, Link 0=g16.exe
 Initial command:
 /opt/cesga/2020/software/Core/g16/c1/l1.exe "/mnt/lustre/scratch/nvme/SLURM/9664123/usccqdma.WphZIwTvYG/Gau-580916.inp" -scrdir="/mnt/lustre/scratch/nvme/SLURM/9664123/usccqdma.WphZIwTvYG/"
 Default is to use a total of  16 processors:
                               16 via shared-memory
                                1 via Linda
 Entering Link 1 = /opt/cesga/2020/software/Core/g16/c1/l1.exe PID=    580942.
  
 Copyright (c) 1988-2019, Gaussian, Inc.  All Rights Reserved.
  
 This is part of the Gaussian(R) 16 program.  It is based on
 the Gaussian(R) 09 system (copyright 2009, Gaussian, Inc.),
 the Gaussian(R) 03 system (copyright 2003, Gaussian, Inc.),
 the Gaussian(R) 98 system (copyright 1998, Gaussian, Inc.),
 the Gaussian(R) 94 system (copyright 1995, Gaussian, Inc.),
 the Gaussian 92(TM) system (copyright 1992, Gaussian, Inc.),
 the Gaussian 90(TM) system (copyright 1990, Gaussian, Inc.),
 the Gaussian 88(TM) system (copyright 1988, Gaussian, Inc.),
 the Gaussian 86(TM) system (copyright 1986, Carnegie Mellon
 University), and the Gaussian 82(TM) system (copyright 1983,
 Carnegie Mellon University). Gaussian is a federally registered
 trademark of Gaussian, Inc.
  
 This software contains proprietary and confidential information,
 including trade secrets, belonging to Gaussian, Inc.
  
 This software is provided under written license and may be
 used, copied, transmitted, or stored only in accord with that
 written license.
  
 The following legend is applicable only to US Government
 contracts under FAR:
  
                    RESTRICTED RIGHTS LEGEND
  
 Use, reproduction and disclosure by the US Government is
 subject to restrictions as set forth in subparagraphs (a)
 and (c) of the Commercial Computer Software - Restricted
 Rights clause in FAR 52.227-19.
  
 Gaussian, Inc.
 340 Quinnipiac St., Bldg. 40, Wallingford CT 06492
  
  
 ---------------------------------------------------------------
 Warning -- This program may not be used in any manner that
 competes with the business of Gaussian, Inc. or will provide
 assistance to any competitor of Gaussian, Inc.  The licensee
 of this program is prohibited from giving any competitor of
 Gaussian, Inc. access to this program.  By using this program,
 the user acknowledges that Gaussian, Inc. is engaged in the
 business of creating and licensing software in the field of
 computational chemistry and represents and warrants to the
 licensee that it is not a competitor of Gaussian, Inc. and that
 it will not use this program in any manner prohibited above.
 ---------------------------------------------------------------
  

 Cite this work as:
 Gaussian 16, Revision C.01,
 M. J. Frisch, G. W. Trucks, H. B. Schlegel, G. E. Scuseria, 
 M. A. Robb, J. R. Cheeseman, G. Scalmani, V. Barone, 
 G. A. Petersson, H. Nakatsuji, X. Li, M. Caricato, A. V. Marenich, 
 J. Bloino, B. G. Janesko, R. Gomperts, B. Mennucci, H. P. Hratchian, 
 J. V. Ortiz, A. F. Izmaylov, J. L. Sonnenberg, D. Williams-Young, 
 F. Ding, F. Lipparini, F. Egidi, J. Goings, B. Peng, A. Petrone, 
 T. Henderson, D. Ranasinghe, V. G. Zakrzewski, J. Gao, N. Rega, 
 G. Zheng, W. Liang, M. Hada, M. Ehara, K. Toyota, R. Fukuda, 
 J. Hasegawa, M. Ishida, T. Nakajima, Y. Honda, O. Kitao, H. Nakai, 
 T. Vreven, K. Throssell, J. A. Montgomery, Jr., J. E. Peralta, 
 F. Ogliaro, M. J. Bearpark, J. J. Heyd, E. N. Brothers, K. N. Kudin, 
 V. N. Staroverov, T. A. Keith, R. Kobayashi, J. Normand, 
 K. Raghavachari, A. P. Rendell, J. C. Burant, S. S. Iyengar, 
 J. Tomasi, M. Cossi, J. M. Millam, M. Klene, C. Adamo, R. Cammi, 
 J. W. Ochterski, R. L. Martin, K. Morokuma, O. Farkas, 
 J. B. Foresman, and D. J. Fox, Gaussian, Inc., Wallingford CT, 2019.
 
 ******************************************
 Gaussian 16:  ES64L-G16RevC.01  3-Jul-2019
                 7-Dec-2024 
 ******************************************
 Default route: SCF=Direct
 ----------------------------------------------------
 # m06/genecp scf=tight int=ultrafine 5d freq=noraman
 ----------------------------------------------------
 1/10=4,30=1,38=1/1,3;
 2/12=2,17=6,18=5,40=1/2;
 3/5=7,8=1,11=2,16=1,17=8,25=1,30=1,71=2,74=-54,75=-5,140=1/1,2,3;
 4//1;
 5/5=2,32=2,38=5,98=1/2;
 8/6=4,10=90,11=11/1;
 11/6=1,8=1,9=11,15=111,16=1/1,2,10;
 10/6=1/2;
 6/7=2,8=2,9=2,10=2,28=1/1;
 7/8=1,10=1,25=1/1,2,3,16;
 1/10=4,30=1/3;
 99//99;
 ------
 OPT-TS
 ------
 Symbolic Z-matrix:
 Charge =  0 Multiplicity = 1
 C                     0.99547   2.13174  -1.16182 
 C                     2.81531   1.82677  -2.56097 
 C                     2.47379   2.96346  -3.30845 
 C                     1.34604   3.67816  -2.97338 
 N                     2.09277   1.42373  -1.52309 
 Ir                    2.55481  -0.38177  -0.25778 
 O                     4.8859   -2.27938  -0.82907 
 O                     4.58818  -1.3106    1.91065 
 O                     5.05177   1.4538    0.1857 
 B                     3.27846  -1.2604    1.45173 
 B                     4.20088  -1.11983  -1.16924 
 B                     3.84263   0.99753   0.6827 
 O                     3.46887   1.73212   1.80425 
 O                     4.80416  -0.52801  -2.28352 
 C                     5.87803  -1.37678  -2.72185 
 C                     6.17744  -2.20328  -1.44012 
 C                     5.6042    2.37748   1.13901 
 C                     4.33226   2.87697   1.87866 
 C                     4.62366  -2.17981   3.04936 
 C                     3.18006  -2.03786   3.60228 
 O                     2.42311  -1.83502   2.39586 
 C                     6.70006  -3.60386  -1.68423 
 H                     7.65433  -3.57782  -2.23026 
 H                     6.87468  -4.10247  -0.72167 
 H                     5.98646  -4.21168  -2.25139 
 C                     7.08589  -1.46362  -0.46358 
 H                     7.04464  -1.97352   0.50849 
 H                     8.1291   -1.43778  -0.80803 
 H                     6.72657  -0.43814  -0.30471 
 C                     5.34968  -2.23008  -3.86664 
 H                     4.94369  -1.56945  -4.64433 
 H                     6.14027  -2.84481  -4.31821 
 H                     4.54305  -2.89283  -3.52615 
 C                     7.02272  -0.50755  -3.2027 
 H                     7.91006  -1.11635  -3.42949 
 H                     6.73259   0.01939  -4.12154 
 H                     7.29174   0.24452  -2.4525 
 C                     4.9319   -3.57957   2.53173 
 H                     5.87545  -3.54775   1.97115 
 H                     5.03786  -4.30665   3.34838 
 H                     4.15335  -3.92639   1.8402 
 C                     5.71992  -1.72353   3.99025 
 H                     5.75019  -2.35299   4.89136 
 H                     6.69243  -1.80349   3.48543 
 H                     5.58721  -0.68019   4.30013 
 C                     2.64818  -3.2591    4.32286 
 H                     3.26626  -3.49317   5.20173 
 H                     1.62433  -3.07081   4.67154 
 H                     2.62488  -4.13603   3.66684 
 C                     2.99263  -0.79222   4.45984 
 H                     1.92085  -0.65811   4.66016 
 H                     3.50691  -0.87625   5.42689 
 H                     3.35069   0.10613   3.93581 
 C                     4.53727   3.25089   3.33208 
 H                     3.58498   3.57864   3.76881 
 H                     4.90188   2.3993    3.91864 
 H                     5.25777   4.07603   3.42866 
 C                     3.6202    4.00589   1.14126 
 H                     2.62277   4.13883   1.5808 
 H                     4.16282   4.95816   1.21508 
 H                     3.48874   3.76007   0.07724 
 C                     6.37479   3.44758   0.39298 
 H                     6.74633   4.21861   1.08358 
 H                     7.24112   2.99485  -0.1069 
 H                     5.75979   3.93005  -0.37499 
 C                     6.54246   1.58787   2.0407 
 H                     7.32313   1.12341   1.42454 
 H                     7.0318    2.22876   2.78664 
 H                     6.00017   0.78091   2.54965 
 C                    -1.20632  -2.20331  -1.95595 
 C                    -0.86157  -2.41284  -3.29628 
 C                    -0.21116  -1.76938  -1.0698 
 C                     0.44394  -2.19885  -3.72024 
 C                     1.10472  -1.5251   -1.47763 
 H                    -0.48118  -1.59277  -0.02653 
 C                     1.41847  -1.77261  -2.82214 
 H                     0.70822  -2.37796  -4.76233 
 H                     2.08149  -1.96626  -0.30399 
 H                    -1.60801  -2.78506  -3.99772 
 H                     2.43758  -1.60492  -3.17606 
 C                     0.2631    1.71751   0.00438 
 C                     0.16098   0.32547   1.84348 
 C                    -1.52538   2.0077    1.58327 
 C                    -0.98269   0.9795    2.32045 
 N                     0.75606   0.67927   0.71596 
 C                     0.56555   3.26884  -1.87604 
 C                    -0.91212   2.40542   0.37854 
 H                     3.0986    3.25692  -4.14831 
 H                     0.61943  -0.51206   2.37321 
 H                     3.6908    1.21718  -2.78942 
 H                     1.04226   4.55423  -3.54626 
 H                    -2.41886   2.52557   1.92631 
 H                    -1.43135   0.66693   3.26018 
 C                    -1.41068   3.47898  -0.45254 
 C                    -0.65523   3.90947  -1.50487 
 H                    -1.0257    4.71941  -2.13495 
 C                    -2.58675  -2.43568  -1.48813 
 C                    -2.84227  -2.91111  -0.19301 
 C                    -3.6863   -2.19134  -2.32607 
 C                    -4.1363   -3.1265    0.25166 
 H                    -2.0049   -3.13978   0.46453 
 C                    -4.98173  -2.41528  -1.89102 
 H                    -3.51613  -1.80048  -3.3283 
 C                    -5.22245  -2.87909  -0.59403 
 H                    -4.31376  -3.49752   1.25822 
 H                    -5.82948  -2.2339   -2.55007 
 C                    -6.61758  -3.07735  -0.16193 
 O                    -7.59758  -2.84768  -0.85575 
 O                    -6.71311  -3.53769   1.08996 
 C                    -8.03314  -3.72493   1.58833 
 H                    -7.91667  -4.13497   2.59319 
 H                    -8.57513  -2.77268   1.62932 
 H                    -8.58912  -4.42529   0.95425 
 C                    -2.76599   4.0284   -0.23123 
 C                    -3.84149   3.13915  -0.19861 
 C                    -3.01787   5.3982   -0.12836 
 C                    -5.1634    3.57446  -0.08076 
 H                    -3.642     2.06998  -0.27423 
 C                    -4.32761   5.84835   0.01356 
 H                    -2.18669   6.10304  -0.14388 
 C                    -5.38997   4.95168   0.03497 
 H                    -4.5237    6.91615   0.09826 
 H                    -6.4118    5.3225    0.11119 
 C                    -6.25377   2.58287  -0.09245 
 C                    -7.40874   2.73034   0.6829 
 C                    -6.14014   1.42241  -0.86836 
 C                    -8.39986   1.75715   0.72582 
 H                    -7.52107   3.61597   1.30924 
 C                    -7.11852   0.44868  -0.84408 
 H                    -5.27763   1.2838   -1.52021 
 C                    -8.24954   0.58935  -0.03023 
 H                    -7.01634  -0.4455   -1.45844 
 H                    -9.27912   1.87772   1.34985 
 N                    -9.14082  -0.48634  -0.02368 
 C                    -10.3488  -0.58762   0.63813 
 H                    -8.78635  -1.32099  -0.4868 
 O                    -10.87037   0.31039   1.27722 
 C                    -12.24947  -2.09735   0.96734 
 H                    -12.3237  -3.07784   1.45244 
 H                    -12.5026  -1.32096   1.69423 
 H                    -12.97894  -2.0526    0.14553 
 N                    -10.89855  -1.84987   0.52257 
 H                    -10.50188  -2.4805   -0.1633 
 

 GradGradGradGradGradGradGradGradGradGradGradGradGradGradGradGradGradGrad
 Berny optimization.
 Initialization pass.
 Trust Radius=3.00D-01 FncErr=1.00D-07 GrdErr=1.00D-07 EigMax=2.50D+02 EigMin=1.00D-04
 Number of steps in this run=      2 maximum allowed number of steps=      2.
 GradGradGradGradGradGradGradGradGradGradGradGradGradGradGradGradGradGrad

 Stoichiometry    C58H68B3IrN4O9
 Framework group  C1[X(C58H68B3IrN4O9)]
 Deg. of freedom   423
 Full point group                 C1      NOp   1
 Largest Abelian subgroup         C1      NOp   1
 Largest concise Abelian subgroup C1      NOp   1
                         Standard orientation:                         
 ---------------------------------------------------------------------
 Center     Atomic      Atomic             Coordinates (Angstroms)
 Number     Number       Type             X           Y           Z
 ---------------------------------------------------------------------
      1          6           0        0.995470    2.131739   -1.161821
      2          6           0        2.815310    1.826769   -2.560971
      3          6           0        2.473790    2.963459   -3.308451
      4          6           0        1.346040    3.678159   -2.973381
      5          7           0        2.092770    1.423729   -1.523091
      6         77           0        2.554809   -0.381771   -0.257781
      7          8           0        4.885899   -2.279381   -0.829071
      8          8           0        4.588179   -1.310601    1.910649
      9          8           0        5.051770    1.453799    0.185699
     10          5           0        3.278459   -1.260401    1.451729
     11          5           0        4.200879   -1.119831   -1.169241
     12          5           0        3.842630    0.997529    0.682699
     13          8           0        3.468870    1.732119    1.804249
     14          8           0        4.804159   -0.528011   -2.283521
     15          6           0        5.878029   -1.376781   -2.721851
     16          6           0        6.177439   -2.203281   -1.440121
     17          6           0        5.604200    2.377479    1.139009
     18          6           0        4.332260    2.876969    1.878659
     19          6           0        4.623659   -2.179811    3.049359
     20          6           0        3.180059   -2.037861    3.602279
     21          8           0        2.423109   -1.835021    2.395859
     22          6           0        6.700059   -3.603861   -1.684231
     23          1           0        7.654329   -3.577821   -2.230261
     24          1           0        6.874679   -4.102471   -0.721671
     25          1           0        5.986459   -4.211681   -2.251391
     26          6           0        7.085889   -1.463621   -0.463581
     27          1           0        7.044639   -1.973521    0.508489
     28          1           0        8.129099   -1.437781   -0.808031
     29          1           0        6.726569   -0.438141   -0.304711
     30          6           0        5.349679   -2.230081   -3.866641
     31          1           0        4.943689   -1.569451   -4.644331
     32          1           0        6.140269   -2.844811   -4.318211
     33          1           0        4.543049   -2.892831   -3.526151
     34          6           0        7.022719   -0.507551   -3.202701
     35          1           0        7.910059   -1.116351   -3.429491
     36          1           0        6.732589    0.019389   -4.121541
     37          1           0        7.291739    0.244519   -2.452501
     38          6           0        4.931899   -3.579571    2.531729
     39          1           0        5.875449   -3.547751    1.971149
     40          1           0        5.037859   -4.306651    3.348379
     41          1           0        4.153349   -3.926391    1.840199
     42          6           0        5.719919   -1.723531    3.990249
     43          1           0        5.750189   -2.352991    4.891359
     44          1           0        6.692429   -1.803491    3.485429
     45          1           0        5.587209   -0.680191    4.300129
     46          6           0        2.648179   -3.259101    4.322859
     47          1           0        3.266259   -3.493171    5.201729
     48          1           0        1.624329   -3.070811    4.671539
     49          1           0        2.624879   -4.136031    3.666839
     50          6           0        2.992629   -0.792221    4.459839
     51          1           0        1.920849   -0.658111    4.660159
     52          1           0        3.506909   -0.876251    5.426889
     53          1           0        3.350689    0.106129    3.935809
     54          6           0        4.537270    3.250889    3.332079
     55          1           0        3.584980    3.578639    3.768809
     56          1           0        4.901880    2.399299    3.918639
     57          1           0        5.257770    4.076029    3.428659
     58          6           0        3.620200    4.005889    1.141259
     59          1           0        2.622770    4.138829    1.580799
     60          1           0        4.162820    4.958159    1.215079
     61          1           0        3.488740    3.760069    0.077239
     62          6           0        6.374790    3.447579    0.392979
     63          1           0        6.746330    4.218609    1.083579
     64          1           0        7.241120    2.994849   -0.106901
     65          1           0        5.759790    3.930049   -0.374991
     66          6           0        6.542460    1.587869    2.040699
     67          1           0        7.323130    1.123409    1.424539
     68          1           0        7.031800    2.228759    2.786639
     69          1           0        6.000170    0.780909    2.549649
     70          6           0       -1.206321   -2.203311   -1.955951
     71          6           0       -0.861571   -2.412841   -3.296281
     72          6           0       -0.211161   -1.769381   -1.069801
     73          6           0        0.443939   -2.198851   -3.720241
     74          6           0        1.104719   -1.525101   -1.477631
     75          1           0       -0.481181   -1.592771   -0.026531
     76          6           0        1.418469   -1.772611   -2.822141
     77          1           0        0.708219   -2.377961   -4.762331
     78          1           0        2.081489   -1.966261   -0.303991
     79          1           0       -1.608011   -2.785061   -3.997721
     80          1           0        2.437579   -1.604921   -3.176061
     81          6           0        0.263100    1.717509    0.004379
     82          6           0        0.160979    0.325469    1.843479
     83          6           0       -1.525380    2.007699    1.583269
     84          6           0       -0.982690    0.979499    2.320449
     85          7           0        0.756059    0.679269    0.715959
     86          6           0        0.565550    3.268839   -1.876041
     87          6           0       -0.912120    2.405419    0.378539
     88          1           0        3.098600    3.256919   -4.148311
     89          1           0        0.619429   -0.512061    2.373209
     90          1           0        3.690800    1.217179   -2.789421
     91          1           0        1.042260    4.554229   -3.546261
     92          1           0       -2.418860    2.525569    1.926309
     93          1           0       -1.431351    0.666929    3.260179
     94          6           0       -1.410680    3.478979   -0.452541
     95          6           0       -0.655230    3.909469   -1.504871
     96          1           0       -1.025700    4.719409   -2.134951
     97          6           0       -2.586751   -2.435680   -1.488131
     98          6           0       -2.842271   -2.911110   -0.193011
     99          6           0       -3.686301   -2.191340   -2.326071
    100          6           0       -4.136301   -3.126500    0.251659
    101          1           0       -2.004901   -3.139781    0.464529
    102          6           0       -4.981731   -2.415280   -1.891021
    103          1           0       -3.516131   -1.800480   -3.328301
    104          6           0       -5.222451   -2.879090   -0.594031
    105          1           0       -4.313761   -3.497520    1.258219
    106          1           0       -5.829481   -2.233900   -2.550071
    107          6           0       -6.617581   -3.077350   -0.161931
    108          8           0       -7.597581   -2.847680   -0.855751
    109          8           0       -6.713111   -3.537690    1.089959
    110          6           0       -8.033141   -3.724930    1.588329
    111          1           0       -7.916671   -4.134970    2.593189
    112          1           0       -8.575131   -2.772680    1.629319
    113          1           0       -8.589121   -4.425290    0.954249
    114          6           0       -2.765990    4.028400   -0.231231
    115          6           0       -3.841490    3.139150   -0.198611
    116          6           0       -3.017870    5.398200   -0.128361
    117          6           0       -5.163400    3.574460   -0.080761
    118          1           0       -3.642000    2.069980   -0.274231
    119          6           0       -4.327610    5.848350    0.013559
    120          1           0       -2.186690    6.103039   -0.143881
    121          6           0       -5.389970    4.951680    0.034969
    122          1           0       -4.523700    6.916150    0.098259
    123          1           0       -6.411800    5.322500    0.111189
    124          6           0       -6.253770    2.582870   -0.092451
    125          6           0       -7.408740    2.730340    0.682899
    126          6           0       -6.140140    1.422410   -0.868361
    127          6           0       -8.399860    1.757150    0.725819
    128          1           0       -7.521070    3.615970    1.309239
    129          6           0       -7.118521    0.448680   -0.844081
    130          1           0       -5.277630    1.283800   -1.520211
    131          6           0       -8.249541    0.589350   -0.030231
    132          1           0       -7.016341   -0.445500   -1.458441
    133          1           0       -9.279120    1.877720    1.349849
    134          7           0       -9.140821   -0.486340   -0.023681
    135          6           0      -10.348801   -0.587620    0.638129
    136          1           0       -8.786351   -1.320990   -0.486801
    137          8           0      -10.870371    0.310390    1.277219
    138          6           0      -12.249471   -2.097350    0.967339
    139          1           0      -12.323701   -3.077840    1.452439
    140          1           0      -12.502601   -1.320960    1.694229
    141          1           0      -12.978941   -2.052600    0.145529
    142          7           0      -10.898551   -1.849870    0.522569
    143          1           0      -10.501881   -2.480500   -0.163301
 ---------------------------------------------------------------------
 Rotational constants (GHZ):           0.0476969           0.0150514           0.0139107
 General basis read from cards:  (5D, 7F)
 ======================================================================================================
                                       Pseudopotential Parameters
 ======================================================================================================
  Center     Atomic      Valence      Angular      Power
  Number     Number     Electrons     Momentum     of R      Exponent        Coefficient   SO-Coeffient
 ======================================================================================================
    1          6
                                   No pseudopotential on this center.
    2          6
                                   No pseudopotential on this center.
    3          6
                                   No pseudopotential on this center.
    4          6
                                   No pseudopotential on this center.
    5          7
                                   No pseudopotential on this center.
    6         77           17
                                      G and up 
                                                     1      823.5880147       -0.15780140    0.00000000
                                                     2      364.6613336    -1517.52704460    0.00000000
                                                     2       55.7082801     -316.53065290    0.00000000
                                                     2       12.0464544      -91.88809410    0.00000000
                                                     2        3.5120610       -9.22417730    0.00000000
                                      S - G
                                                     0      188.0490770        3.15780140    0.00000000
                                                     1      340.4194712       26.83225770    0.00000000
                                                     2      128.2373673      800.42500070    0.00000000
                                                     2       33.8644961      369.40506830    0.00000000
                                                     2        4.7560005      242.41718990    0.00000000
                                                     2        3.9649974     -118.21732820    0.00000000
                                      P - G
                                                     0      289.7291139        2.15780140    0.00000000
                                                     1       87.4633789       61.96786100    0.00000000
                                                     2       30.4363766      269.05819860    0.00000000
                                                     2        4.0553412      231.16547930    0.00000000
                                                     2        3.5525341     -133.69526670    0.00000000
                                      D - G
                                                     0      136.4017106        3.15780140    0.00000000
                                                     1       95.0776925       45.93498030    0.00000000
                                                     2       49.2258410      359.03446680    0.00000000
                                                     2       15.0874145      176.47401190    0.00000000
                                                     2        4.0405764       54.51552860    0.00000000
                                      F - G
                                                     0      127.3507908        3.95461970    0.00000000
                                                     1       66.2364374       52.97736550    0.00000000
                                                     2       34.4299229      274.86433830    0.00000000
                                                     2       10.1995721      137.20473380    0.00000000
                                                     2        2.5409702       14.86333050    0.00000000
    7          8
                                   No pseudopotential on this center.
    8          8
                                   No pseudopotential on this center.
    9          8
                                   No pseudopotential on this center.
   10          5
                                   No pseudopotential on this center.
   11          5
                                   No pseudopotential on this center.
   12          5
                                   No pseudopotential on this center.
   13          8
                                   No pseudopotential on this center.
   14          8
                                   No pseudopotential on this center.
   15          6
                                   No pseudopotential on this center.
   16          6
                                   No pseudopotential on this center.
   17          6
                                   No pseudopotential on this center.
   18          6
                                   No pseudopotential on this center.
   19          6
                                   No pseudopotential on this center.
   20          6
                                   No pseudopotential on this center.
   21          8
                                   No pseudopotential on this center.
   22          6
                                   No pseudopotential on this center.
   23          1
                                   No pseudopotential on this center.
   24          1
                                   No pseudopotential on this center.
   25          1
                                   No pseudopotential on this center.
   26          6
                                   No pseudopotential on this center.
   27          1
                                   No pseudopotential on this center.
   28          1
                                   No pseudopotential on this center.
   29          1
                                   No pseudopotential on this center.
   30          6
                                   No pseudopotential on this center.
   31          1
                                   No pseudopotential on this center.
   32          1
                                   No pseudopotential on this center.
   33          1
                                   No pseudopotential on this center.
   34          6
                                   No pseudopotential on this center.
   35          1
                                   No pseudopotential on this center.
   36          1
                                   No pseudopotential on this center.
   37          1
                                   No pseudopotential on this center.
   38          6
                                   No pseudopotential on this center.
   39          1
                                   No pseudopotential on this center.
   40          1
                                   No pseudopotential on this center.
   41          1
                                   No pseudopotential on this center.
   42          6
                                   No pseudopotential on this center.
   43          1
                                   No pseudopotential on this center.
   44          1
                                   No pseudopotential on this center.
   45          1
                                   No pseudopotential on this center.
   46          6
                                   No pseudopotential on this center.
   47          1
                                   No pseudopotential on this center.
   48          1
                                   No pseudopotential on this center.
   49          1
                                   No pseudopotential on this center.
   50          6
                                   No pseudopotential on this center.
   51          1
                                   No pseudopotential on this center.
   52          1
                                   No pseudopotential on this center.
   53          1
                                   No pseudopotential on this center.
   54          6
                                   No pseudopotential on this center.
   55          1
                                   No pseudopotential on this center.
   56          1
                                   No pseudopotential on this center.
   57          1
                                   No pseudopotential on this center.
   58          6
                                   No pseudopotential on this center.
   59          1
                                   No pseudopotential on this center.
   60          1
                                   No pseudopotential on this center.
   61          1
                                   No pseudopotential on this center.
   62          6
                                   No pseudopotential on this center.
   63          1
                                   No pseudopotential on this center.
   64          1
                                   No pseudopotential on this center.
   65          1
                                   No pseudopotential on this center.
   66          6
                                   No pseudopotential on this center.
   67          1
                                   No pseudopotential on this center.
   68          1
                                   No pseudopotential on this center.
   69          1
                                   No pseudopotential on this center.
   70          6
                                   No pseudopotential on this center.
   71          6
                                   No pseudopotential on this center.
   72          6
                                   No pseudopotential on this center.
   73          6
                                   No pseudopotential on this center.
   74          6
                                   No pseudopotential on this center.
   75          1
                                   No pseudopotential on this center.
   76          6
                                   No pseudopotential on this center.
   77          1
                                   No pseudopotential on this center.
   78          1
                                   No pseudopotential on this center.
   79          1
                                   No pseudopotential on this center.
   80          1
                                   No pseudopotential on this center.
   81          6
                                   No pseudopotential on this center.
   82          6
                                   No pseudopotential on this center.
   83          6
                                   No pseudopotential on this center.
   84          6
                                   No pseudopotential on this center.
   85          7
                                   No pseudopotential on this center.
   86          6
                                   No pseudopotential on this center.
   87          6
                                   No pseudopotential on this center.
   88          1
                                   No pseudopotential on this center.
   89          1
                                   No pseudopotential on this center.
   90          1
                                   No pseudopotential on this center.
   91          1
                                   No pseudopotential on this center.
   92          1
                                   No pseudopotential on this center.
   93          1
                                   No pseudopotential on this center.
   94          6
                                   No pseudopotential on this center.
   95          6
                                   No pseudopotential on this center.
   96          1
                                   No pseudopotential on this center.
   97          6
                                   No pseudopotential on this center.
   98          6
                                   No pseudopotential on this center.
   99          6
                                   No pseudopotential on this center.
  100          6
                                   No pseudopotential on this center.
  101          1
                                   No pseudopotential on this center.
  102          6
                                   No pseudopotential on this center.
  103          1
                                   No pseudopotential on this center.
  104          6
                                   No pseudopotential on this center.
  105          1
                                   No pseudopotential on this center.
  106          1
                                   No pseudopotential on this center.
  107          6
                                   No pseudopotential on this center.
  108          8
                                   No pseudopotential on this center.
  109          8
                                   No pseudopotential on this center.
  110          6
                                   No pseudopotential on this center.
  111          1
                                   No pseudopotential on this center.
  112          1
                                   No pseudopotential on this center.
  113          1
                                   No pseudopotential on this center.
  114          6
                                   No pseudopotential on this center.
  115          6
                                   No pseudopotential on this center.
  116          6
                                   No pseudopotential on this center.
  117          6
                                   No pseudopotential on this center.
  118          1
                                   No pseudopotential on this center.
  119          6
                                   No pseudopotential on this center.
  120          1
                                   No pseudopotential on this center.
  121          6
                                   No pseudopotential on this center.
  122          1
                                   No pseudopotential on this center.
  123          1
                                   No pseudopotential on this center.
  124          6
                                   No pseudopotential on this center.
  125          6
                                   No pseudopotential on this center.
  126          6
                                   No pseudopotential on this center.
  127          6
                                   No pseudopotential on this center.
  128          1
                                   No pseudopotential on this center.
  129          6
                                   No pseudopotential on this center.
  130          1
                                   No pseudopotential on this center.
  131          6
                                   No pseudopotential on this center.
  132          1
                                   No pseudopotential on this center.
  133          1
                                   No pseudopotential on this center.
  134          7
                                   No pseudopotential on this center.
  135          6
                                   No pseudopotential on this center.
  136          1
                                   No pseudopotential on this center.
  137          8
                                   No pseudopotential on this center.
  138          6
                                   No pseudopotential on this center.
  139          1
                                   No pseudopotential on this center.
  140          1
                                   No pseudopotential on this center.
  141          1
                                   No pseudopotential on this center.
  142          7
                                   No pseudopotential on this center.
  143          1
                                   No pseudopotential on this center.
 ======================================================================================================
 There are  1270 symmetry adapted cartesian basis functions of A   symmetry.
 There are  1194 symmetry adapted basis functions of A   symmetry.
  1194 basis functions,  2387 primitive gaussians,  1270 cartesian basis functions
   274 alpha electrons      274 beta electrons
       nuclear repulsion energy     13363.5502172011 Hartrees.
 NAtoms=  143 NActive=  143 NUniq=  143 SFac= 1.00D+00 NAtFMM=   60 NAOKFM=T Big=T
 Integral buffers will be    131072 words long.
 Raffenetti 2 integral format.
 Two-electron integral symmetry is turned on.
 One-electron integrals computed using PRISM.
   1 Symmetry operations used in ECPInt.
 ECPInt:  NShTT=   97020 NPrTT=  609300 LenC2=   55892 LenP2D=  167536.
 LDataN:  DoStor=T MaxTD1= 6 Len=  172
 NBasis=  1194 RedAO= T EigKep=  2.38D-04  NBF=  1194
 NBsUse=  1194 1.00D-06 EigRej= -1.00D+00 NBFU=  1194
 Defaulting to unpruned grid for atomic number  77.
 ExpMin= 2.90D-02 ExpMax= 5.48D+03 ExpMxC= 8.25D+02 IAcc=3 IRadAn=         5 AccDes= 0.00D+00
 Harris functional with IExCor= 1009 and IRadAn=       5 diagonalized for initial guess.
 HarFok:  IExCor= 1009 AccDes= 0.00D+00 IRadAn=         5 IDoV= 1 UseB2=F ITyADJ=14
 ICtDFT=  3500011 ScaDFX=  1.000000  1.000000  1.000000  1.000000
 Defaulting to unpruned grid for atomic number  77.
 FoFCou: FMM=F IPFlag=           0 FMFlag=      100000 FMFlg1=        2001
         NFxFlg=           0 DoJE=T BraDBF=F KetDBF=T FulRan=T
         wScrn=  0.000000 ICntrl=       500 IOpCl=  0 I1Cent=   200000004 NGrid=           0
         NMat0=    1 NMatS0=      1 NMatT0=    0 NMatD0=    1 NMtDS0=    0 NMtDT0=    0
 Petite list used in FoFCou.
 Requested convergence on RMS density matrix=1.00D-08 within 128 cycles.
 Requested convergence on MAX density matrix=1.00D-06.
 Requested convergence on             energy=1.00D-06.
 No special actions if energy rises.
 Defaulting to unpruned grid for atomic number  77.
 Defaulting to unpruned grid for atomic number  77.
 Defaulting to unpruned grid for atomic number  77.
 Defaulting to unpruned grid for atomic number  77.
 Defaulting to unpruned grid for atomic number  77.
 Defaulting to unpruned grid for atomic number  77.
 Defaulting to unpruned grid for atomic number  77.
 Defaulting to unpruned grid for atomic number  77.
 Defaulting to unpruned grid for atomic number  77.
 Defaulting to unpruned grid for atomic number  77.
 Defaulting to unpruned grid for atomic number  77.
 Defaulting to unpruned grid for atomic number  77.
 Defaulting to unpruned grid for atomic number  77.
 Defaulting to unpruned grid for atomic number  77.
 Defaulting to unpruned grid for atomic number  77.
 Defaulting to unpruned grid for atomic number  77.
 SCF Done:  E(RM06) =  -3324.59216679     A.U. after   15 cycles
            NFock= 15  Conv=0.71D-08     -V/T= 2.0285
 DoSCS=F DFT=T ScalE2(SS,OS)=  1.000000  1.000000
 Range of M.O.s used for correlation:     1  1194
 NBasis=  1194 NAE=   274 NBE=   274 NFC=     0 NFV=     0
 NROrb=   1194 NOA=   274 NOB=   274 NVA=   920 NVB=   920

 **** Warning!!: The largest alpha MO coefficient is  0.12570147D+02

   1 Symmetry operations used in ECPInt.
 ECPInt:  NShTT=   97020 NPrTT=  609300 LenC2=   55892 LenP2D=  167536.
 LDataN:  DoStor=T MaxTD1= 7 Len=  274
 Number of processors reduced to   4 by ecpmxn.
 Symmetrizing basis deriv contribution to polar:
 IMax=3 JMax=2 DiffMx= 0.00D+00
 G2DrvN: will do   144 centers at a time, making    1 passes.
 Calling FoFCou, ICntrl=  3107 FMM=T I1Cent=   0 AccDes= 0.00D+00.
 Defaulting to unpruned grid for atomic number  77.
 Defaulting to unpruned grid for atomic number  77.
 Defaulting to unpruned grid for atomic number  77.
 Defaulting to unpruned grid for atomic number  77.
 Defaulting to unpruned grid for atomic number  77.
 Defaulting to unpruned grid for atomic number  77.
 Defaulting to unpruned grid for atomic number  77.
 Defaulting to unpruned grid for atomic number  77.
 Defaulting to unpruned grid for atomic number  77.
 Defaulting to unpruned grid for atomic number  77.
 Defaulting to unpruned grid for atomic number  77.
 Defaulting to unpruned grid for atomic number  77.
 Defaulting to unpruned grid for atomic number  77.
 Defaulting to unpruned grid for atomic number  77.
 Defaulting to unpruned grid for atomic number  77.
 Defaulting to unpruned grid for atomic number  77.
 End of G2Drv F.D. properties file   721 does not exist.
 End of G2Drv F.D. properties file   722 does not exist.
 End of G2Drv F.D. properties file   788 does not exist.
          IDoAtm=11111111111111111111111111111111111111111111111111
          IDoAtm=11111111111111111111111111111111111111111111111111
          IDoAtm=1111111111111111111111111111111111111111111
          Differentiating once with respect to electric field.
                with respect to dipole field.
          Differentiating once with respect to nuclear coordinates.
 Defaulting to unpruned grid for atomic number  77.
 CalDSu exits because no D1Ps are significant.
 Defaulting to unpruned grid for atomic number  77.
 Defaulting to unpruned grid for atomic number  77.
 Defaulting to unpruned grid for atomic number  77.
 Defaulting to unpruned grid for atomic number  77.
 Defaulting to unpruned grid for atomic number  77.
 Defaulting to unpruned grid for atomic number  77.
 Defaulting to unpruned grid for atomic number  77.
 Defaulting to unpruned grid for atomic number  77.
 Defaulting to unpruned grid for atomic number  77.
 Defaulting to unpruned grid for atomic number  77.
 Defaulting to unpruned grid for atomic number  77.
 Defaulting to unpruned grid for atomic number  77.
 Defaulting to unpruned grid for atomic number  77.
 Defaulting to unpruned grid for atomic number  77.
 Defaulting to unpruned grid for atomic number  77.
 Defaulting to unpruned grid for atomic number  77.
          There are   432 degrees of freedom in the 1st order CPHF.  IDoFFX=6 NUNeed=     3.
    429 vectors produced by pass  0 Test12= 2.52D-13 1.00D-09 XBig12= 1.01D+03 8.33D+00.
 AX will form    72 AO Fock derivatives at one time.
    429 vectors produced by pass  1 Test12= 2.52D-13 1.00D-09 XBig12= 1.37D+02 1.19D+00.
    429 vectors produced by pass  2 Test12= 2.52D-13 1.00D-09 XBig12= 1.45D+00 7.17D-02.
    429 vectors produced by pass  3 Test12= 2.52D-13 1.00D-09 XBig12= 9.45D-03 3.88D-03.
    429 vectors produced by pass  4 Test12= 2.52D-13 1.00D-09 XBig12= 3.38D-05 2.64D-04.
    406 vectors produced by pass  5 Test12= 2.52D-13 1.00D-09 XBig12= 7.17D-08 1.25D-05.
    125 vectors produced by pass  6 Test12= 2.52D-13 1.00D-09 XBig12= 1.12D-10 4.50D-07.
      3 vectors produced by pass  7 Test12= 2.52D-13 1.00D-09 XBig12= 1.66D-13 1.76D-08.
 InvSVY:  IOpt=1 It=  1 EMax= 3.20D-14
 Solved reduced A of dimension  2679 with   432 vectors.
 Isotropic polarizability for W=    0.000000      784.89 Bohr**3.
 End of Minotr F.D. properties file   721 does not exist.
 End of Minotr F.D. properties file   722 does not exist.
 End of Minotr F.D. properties file   788 does not exist.
 Hyperfine terms turned off by default for NAtoms > 100.

 **********************************************************************

            Population analysis using the SCF Density.

 **********************************************************************

 Orbital symmetries:
       Occupied  (A) (A) (A) (A) (A) (A) (A) (A) (A) (A) (A) (A)
                 (A) (A) (A) (A) (A) (A) (A) (A) (A) (A) (A) (A)
                 (A) (A) (A) (A) (A) (A) (A) (A) (A) (A) (A) (A)
                 (A) (A) (A) (A) (A) (A) (A) (A) (A) (A) (A) (A)
                 (A) (A) (A) (A) (A) (A) (A) (A) (A) (A) (A) (A)
                 (A) (A) (A) (A) (A) (A) (A) (A) (A) (A) (A) (A)
                 (A) (A) (A) (A) (A) (A) (A) (A) (A) (A) (A) (A)
                 (A) (A) (A) (A) (A) (A) (A) (A) (A) (A) (A) (A)
                 (A) (A) (A) (A) (A) (A) (A) (A) (A) (A) (A) (A)
                 (A) (A) (A) (A) (A) (A) (A) (A) (A) (A) (A) (A)
                 (A) (A) (A) (A) (A) (A) (A) (A) (A) (A) (A) (A)
                 (A) (A) (A) (A) (A) (A) (A) (A) (A) (A) (A) (A)
                 (A) (A) (A) (A) (A) (A) (A) (A) (A) (A) (A) (A)
                 (A) (A) (A) (A) (A) (A) (A) (A) (A) (A) (A) (A)
                 (A) (A) (A) (A) (A) (A) (A) (A) (A) (A) (A) (A)
                 (A) (A) (A) (A) (A) (A) (A) (A) (A) (A) (A) (A)
                 (A) (A) (A) (A) (A) (A) (A) (A) (A) (A) (A) (A)
                 (A) (A) (A) (A) (A) (A) (A) (A) (A) (A) (A) (A)
                 (A) (A) (A) (A) (A) (A) (A) (A) (A) (A) (A) (A)
                 (A) (A) (A) (A) (A) (A) (A) (A) (A) (A) (A) (A)
                 (A) (A) (A) (A) (A) (A) (A) (A) (A) (A) (A) (A)
                 (A) (A) (A) (A) (A) (A) (A) (A) (A) (A) (A) (A)
                 (A) (A) (A) (A) (A) (A) (A) (A) (A) (A)
       Virtual   (A) (A) (A) (A) (A) (A) (A) (A) (A) (A) (A) (A)
                 (A) (A) (A) (A) (A) (A) (A) (A) (A) (A) (A) (A)
                 (A) (A) (A) (A) (A) (A) (A) (A) (A) (A) (A) (A)
                 (A) (A) (A) (A) (A) (A) (A) (A) (A) (A) (A) (A)
                 (A) (A) (A) (A) (A) (A) (A) (A) (A) (A) (A) (A)
                 (A) (A) (A) (A) (A) (A) (A) (A) (A) (A) (A) (A)
                 (A) (A) (A) (A) (A) (A) (A) (A) (A) (A) (A) (A)
                 (A) (A) (A) (A) (A) (A) (A) (A) (A) (A) (A) (A)
                 (A) (A) (A) (A) (A) (A) (A) (A) (A) (A) (A) (A)
                 (A) (A) (A) (A) (A) (A) (A) (A) (A) (A) (A) (A)
                 (A) (A) (A) (A) (A) (A) (A) (A) (A) (A) (A) (A)
                 (A) (A) (A) (A) (A) (A) (A) (A) (A) (A) (A) (A)
                 (A) (A) (A) (A) (A) (A) (A) (A) (A) (A) (A) (A)
                 (A) (A) (A) (A) (A) (A) (A) (A) (A) (A) (A) (A)
                 (A) (A) (A) (A) (A) (A) (A) (A) (A) (A) (A) (A)
                 (A) (A) (A) (A) (A) (A) (A) (A) (A) (A) (A) (A)
                 (A) (A) (A) (A) (A) (A) (A) (A) (A) (A) (A) (A)
                 (A) (A) (A) (A) (A) (A) (A) (A) (A) (A) (A) (A)
                 (A) (A) (A) (A) (A) (A) (A) (A) (A) (A) (A) (A)
                 (A) (A) (A) (A) (A) (A) (A) (A) (A) (A) (A) (A)
                 (A) (A) (A) (A) (A) (A) (A) (A) (A) (A) (A) (A)
                 (A) (A) (A) (A) (A) (A) (A) (A) (A) (A) (A) (A)
                 (A) (A) (A) (A) (A) (A) (A) (A) (A) (A) (A) (A)
                 (A) (A) (A) (A) (A) (A) (A) (A) (A) (A) (A) (A)
                 (A) (A) (A) (A) (A) (A) (A) (A) (A) (A) (A) (A)
                 (A) (A) (A) (A) (A) (A) (A) (A) (A) (A) (A) (A)
                 (A) (A) (A) (A) (A) (A) (A) (A) (A) (A) (A) (A)
                 (A) (A) (A) (A) (A) (A) (A) (A) (A) (A) (A) (A)
                 (A) (A) (A) (A) (A) (A) (A) (A) (A) (A) (A) (A)
                 (A) (A) (A) (A) (A) (A) (A) (A) (A) (A) (A) (A)
                 (A) (A) (A) (A) (A) (A) (A) (A) (A) (A) (A) (A)
                 (A) (A) (A) (A) (A) (A) (A) (A) (A) (A) (A) (A)
                 (A) (A) (A) (A) (A) (A) (A) (A) (A) (A) (A) (A)
                 (A) (A) (A) (A) (A) (A) (A) (A) (A) (A) (A) (A)
                 (A) (A) (A) (A) (A) (A) (A) (A) (A) (A) (A) (A)
                 (A) (A) (A) (A) (A) (A) (A) (A) (A) (A) (A) (A)
                 (A) (A) (A) (A) (A) (A) (A) (A) (A) (A) (A) (A)
                 (A) (A) (A) (A) (A) (A) (A) (A) (A) (A) (A) (A)
                 (A) (A) (A) (A) (A) (A) (A) (A) (A) (A) (A) (A)
                 (A) (A) (A) (A) (A) (A) (A) (A) (A) (A) (A) (A)
                 (A) (A) (A) (A) (A) (A) (A) (A) (A) (A) (A) (A)
                 (A) (A) (A) (A) (A) (A) (A) (A) (A) (A) (A) (A)
                 (A) (A) (A) (A) (A) (A) (A) (A) (A) (A) (A) (A)
                 (A) (A) (A) (A) (A) (A) (A) (A) (A) (A) (A) (A)
                 (A) (A) (A) (A) (A) (A) (A) (A) (A) (A) (A) (A)
                 (A) (A) (A) (A) (A) (A) (A) (A) (A) (A) (A) (A)
                 (A) (A) (A) (A) (A) (A) (A) (A) (A) (A) (A) (A)
                 (A) (A) (A) (A) (A) (A) (A) (A) (A) (A) (A) (A)
                 (A) (A) (A) (A) (A) (A) (A) (A) (A) (A) (A) (A)
                 (A) (A) (A) (A) (A) (A) (A) (A) (A) (A) (A) (A)
                 (A) (A) (A) (A) (A) (A) (A) (A) (A) (A) (A) (A)
                 (A) (A) (A) (A) (A) (A) (A) (A) (A) (A) (A) (A)
                 (A) (A) (A) (A) (A) (A) (A) (A) (A) (A) (A) (A)
                 (A) (A) (A) (A) (A) (A) (A) (A) (A) (A) (A) (A)
                 (A) (A) (A) (A) (A) (A) (A) (A) (A) (A) (A) (A)
                 (A) (A) (A) (A) (A) (A) (A) (A) (A) (A) (A) (A)
                 (A) (A) (A) (A) (A) (A) (A) (A) (A) (A) (A) (A)
                 (A) (A) (A) (A) (A) (A) (A) (A) (A) (A) (A) (A)
                 (A) (A) (A) (A) (A) (A) (A) (A) (A) (A) (A) (A)
                 (A) (A) (A) (A) (A) (A) (A) (A) (A) (A) (A) (A)
                 (A) (A) (A) (A) (A) (A) (A) (A) (A) (A) (A) (A)
                 (A) (A) (A) (A) (A) (A) (A) (A) (A) (A) (A) (A)
                 (A) (A) (A) (A) (A) (A) (A) (A) (A) (A) (A) (A)
                 (A) (A) (A) (A) (A) (A) (A) (A) (A) (A) (A) (A)
                 (A) (A) (A) (A) (A) (A) (A) (A) (A) (A) (A) (A)
                 (A) (A) (A) (A) (A) (A) (A) (A) (A) (A) (A) (A)
                 (A) (A) (A) (A) (A) (A) (A) (A) (A) (A) (A) (A)
                 (A) (A) (A) (A) (A) (A) (A) (A) (A) (A) (A) (A)
                 (A) (A) (A) (A) (A) (A) (A) (A) (A) (A) (A) (A)
                 (A) (A) (A) (A) (A) (A) (A) (A) (A) (A) (A) (A)
                 (A) (A) (A) (A) (A) (A) (A) (A) (A) (A) (A) (A)
                 (A) (A) (A) (A) (A) (A) (A) (A) (A) (A) (A) (A)
                 (A) (A) (A) (A) (A) (A) (A) (A) (A) (A) (A) (A)
                 (A) (A) (A) (A) (A) (A) (A) (A) (A) (A) (A) (A)
                 (A) (A) (A) (A) (A) (A) (A) (A) (A) (A) (A) (A)
                 (A) (A) (A) (A) (A) (A) (A) (A) (A) (A) (A) (A)
                 (A) (A) (A) (A) (A) (A) (A) (A)
 The electronic state is 1-A.
 Alpha  occ. eigenvalues --  -19.28716 -19.23217 -19.20455 -19.20380 -19.20268
 Alpha  occ. eigenvalues --  -19.19996 -19.19829 -19.18912 -19.18538 -14.45021
 Alpha  occ. eigenvalues --  -14.43837 -14.42400 -14.42017 -10.39764 -10.37333
 Alpha  occ. eigenvalues --  -10.31200 -10.31068 -10.30927 -10.30067 -10.29888
 Alpha  occ. eigenvalues --  -10.29475 -10.29319 -10.29250 -10.29185 -10.29156
 Alpha  occ. eigenvalues --  -10.28858 -10.28816 -10.28806 -10.28756 -10.28596
 Alpha  occ. eigenvalues --  -10.28411 -10.28309 -10.27673 -10.27435 -10.27328
 Alpha  occ. eigenvalues --  -10.27185 -10.27139 -10.27064 -10.26733 -10.26521
 Alpha  occ. eigenvalues --  -10.26396 -10.26365 -10.25882 -10.25830 -10.25649
 Alpha  occ. eigenvalues --  -10.25524 -10.25513 -10.25461 -10.25018 -10.24974
 Alpha  occ. eigenvalues --  -10.24620 -10.24617 -10.24514 -10.24092 -10.23899
 Alpha  occ. eigenvalues --  -10.23762 -10.23537 -10.23514 -10.23280 -10.23045
 Alpha  occ. eigenvalues --  -10.22905 -10.22873 -10.22855 -10.22819 -10.22386
 Alpha  occ. eigenvalues --  -10.22362 -10.22197 -10.22099 -10.21926 -10.21922
 Alpha  occ. eigenvalues --  -10.20987  -6.80516  -6.79741  -6.78634  -3.63076
 Alpha  occ. eigenvalues --   -2.05564  -2.05406  -2.04015  -1.14401  -1.06344
 Alpha  occ. eigenvalues --   -1.06140  -1.06037  -1.05413  -1.05171  -0.99885
 Alpha  occ. eigenvalues --   -0.99275  -0.99240  -0.98398  -0.97249  -0.95451
 Alpha  occ. eigenvalues --   -0.92397  -0.89703  -0.88527  -0.87559  -0.85287
 Alpha  occ. eigenvalues --   -0.85167  -0.84048  -0.83278  -0.80519  -0.80322
 Alpha  occ. eigenvalues --   -0.80148  -0.80031  -0.79711  -0.78199  -0.77737
 Alpha  occ. eigenvalues --   -0.76765  -0.75582  -0.75530  -0.74955  -0.74828
 Alpha  occ. eigenvalues --   -0.74812  -0.74157  -0.73814  -0.73727  -0.72248
 Alpha  occ. eigenvalues --   -0.70568  -0.70262  -0.69980  -0.69793  -0.68738
 Alpha  occ. eigenvalues --   -0.67798  -0.67568  -0.67539  -0.66984  -0.66699
 Alpha  occ. eigenvalues --   -0.65071  -0.64142  -0.63582  -0.62961  -0.62839
 Alpha  occ. eigenvalues --   -0.61924  -0.61408  -0.61360  -0.60836  -0.60218
 Alpha  occ. eigenvalues --   -0.59689  -0.58834  -0.58614  -0.57761  -0.56970
 Alpha  occ. eigenvalues --   -0.56803  -0.55742  -0.55566  -0.54723  -0.54655
 Alpha  occ. eigenvalues --   -0.54507  -0.53878  -0.53833  -0.53795  -0.53048
 Alpha  occ. eigenvalues --   -0.52965  -0.52559  -0.51668  -0.51273  -0.50986
 Alpha  occ. eigenvalues --   -0.50678  -0.50235  -0.49521  -0.48650  -0.47945
 Alpha  occ. eigenvalues --   -0.47802  -0.47620  -0.47064  -0.46927  -0.46828
 Alpha  occ. eigenvalues --   -0.46713  -0.46600  -0.46489  -0.46346  -0.46268
 Alpha  occ. eigenvalues --   -0.46230  -0.45879  -0.45563  -0.45161  -0.45010
 Alpha  occ. eigenvalues --   -0.44705  -0.44596  -0.44363  -0.44186  -0.44021
 Alpha  occ. eigenvalues --   -0.43934  -0.43837  -0.43752  -0.43655  -0.43592
 Alpha  occ. eigenvalues --   -0.43519  -0.43338  -0.43228  -0.43123  -0.42789
 Alpha  occ. eigenvalues --   -0.42587  -0.42388  -0.42310  -0.42123  -0.41462
 Alpha  occ. eigenvalues --   -0.41332  -0.40449  -0.40305  -0.40141  -0.40057
 Alpha  occ. eigenvalues --   -0.39809  -0.39697  -0.39673  -0.39449  -0.39422
 Alpha  occ. eigenvalues --   -0.39364  -0.39268  -0.39150  -0.38985  -0.38811
 Alpha  occ. eigenvalues --   -0.38649  -0.38615  -0.38498  -0.38319  -0.38051
 Alpha  occ. eigenvalues --   -0.37949  -0.37790  -0.37619  -0.37523  -0.37256
 Alpha  occ. eigenvalues --   -0.36863  -0.36725  -0.36546  -0.36527  -0.36309
 Alpha  occ. eigenvalues --   -0.36172  -0.35929  -0.35859  -0.35803  -0.35477
 Alpha  occ. eigenvalues --   -0.35379  -0.35209  -0.34959  -0.34897  -0.34615
 Alpha  occ. eigenvalues --   -0.34368  -0.34144  -0.33899  -0.33544  -0.33380
 Alpha  occ. eigenvalues --   -0.33145  -0.32716  -0.32655  -0.32221  -0.31959
 Alpha  occ. eigenvalues --   -0.31882  -0.31689  -0.31314  -0.30947  -0.30827
 Alpha  occ. eigenvalues --   -0.30453  -0.29979  -0.29843  -0.29536  -0.28289
 Alpha  occ. eigenvalues --   -0.28019  -0.27522  -0.27400  -0.27082  -0.27052
 Alpha  occ. eigenvalues --   -0.26993  -0.26442  -0.26262  -0.26025  -0.25566
 Alpha  occ. eigenvalues --   -0.25545  -0.24749  -0.24499  -0.23530  -0.22819
 Alpha  occ. eigenvalues --   -0.22183  -0.21969  -0.21030  -0.20951
 Alpha virt. eigenvalues --   -0.06691  -0.06479  -0.05285  -0.02433  -0.01815
 Alpha virt. eigenvalues --   -0.00561  -0.00397   0.00705   0.01067   0.01503
 Alpha virt. eigenvalues --    0.01775   0.03357   0.03765   0.05043   0.05828
 Alpha virt. eigenvalues --    0.06198   0.06391   0.06879   0.07208   0.07749
 Alpha virt. eigenvalues --    0.08155   0.08753   0.09260   0.09572   0.09829
 Alpha virt. eigenvalues --    0.10219   0.10282   0.10664   0.10861   0.11272
 Alpha virt. eigenvalues --    0.11676   0.11842   0.12020   0.12105   0.12751
 Alpha virt. eigenvalues --    0.12836   0.13201   0.13288   0.13513   0.13560
 Alpha virt. eigenvalues --    0.13805   0.14042   0.14182   0.14331   0.14588
 Alpha virt. eigenvalues --    0.14729   0.14867   0.15118   0.15223   0.15289
 Alpha virt. eigenvalues --    0.15416   0.15543   0.15667   0.15714   0.15823
 Alpha virt. eigenvalues --    0.16077   0.16202   0.16321   0.16385   0.16684
 Alpha virt. eigenvalues --    0.16749   0.16964   0.17045   0.17310   0.17371
 Alpha virt. eigenvalues --    0.17639   0.17826   0.18031   0.18078   0.18213
 Alpha virt. eigenvalues --    0.18312   0.18505   0.18904   0.19065   0.19161
 Alpha virt. eigenvalues --    0.19319   0.19497   0.19561   0.19609   0.19877
 Alpha virt. eigenvalues --    0.19984   0.20089   0.20217   0.20326   0.20556
 Alpha virt. eigenvalues --    0.20657   0.20779   0.21023   0.21071   0.21216
 Alpha virt. eigenvalues --    0.21382   0.21723   0.22136   0.22375   0.22625
 Alpha virt. eigenvalues --    0.22728   0.23090   0.23298   0.23780   0.23871
 Alpha virt. eigenvalues --    0.24184   0.24363   0.24380   0.24826   0.25032
 Alpha virt. eigenvalues --    0.25185   0.25423   0.25463   0.25628   0.25711
 Alpha virt. eigenvalues --    0.25940   0.26111   0.26351   0.26781   0.26929
 Alpha virt. eigenvalues --    0.27065   0.27124   0.27244   0.27625   0.27737
 Alpha virt. eigenvalues --    0.27932   0.28234   0.28448   0.28626   0.28948
 Alpha virt. eigenvalues --    0.29309   0.29551   0.29958   0.30245   0.30370
 Alpha virt. eigenvalues --    0.30666   0.30916   0.31176   0.31298   0.31430
 Alpha virt. eigenvalues --    0.31765   0.32628   0.32701   0.32845   0.33114
 Alpha virt. eigenvalues --    0.33536   0.33913   0.34215   0.34564   0.34931
 Alpha virt. eigenvalues --    0.35402   0.35674   0.36066   0.36230   0.36536
 Alpha virt. eigenvalues --    0.36610   0.37492   0.37691   0.38556   0.38914
 Alpha virt. eigenvalues --    0.39103   0.39939   0.40904   0.41136   0.41338
 Alpha virt. eigenvalues --    0.42165   0.42227   0.42804   0.43212   0.44069
 Alpha virt. eigenvalues --    0.44777   0.45301   0.45897   0.46763   0.47506
 Alpha virt. eigenvalues --    0.47898   0.48456   0.48965   0.49161   0.49385
 Alpha virt. eigenvalues --    0.49794   0.50167   0.50358   0.50690   0.50937
 Alpha virt. eigenvalues --    0.51102   0.51349   0.51532   0.51650   0.51878
 Alpha virt. eigenvalues --    0.51996   0.52228   0.52405   0.52660   0.52912
 Alpha virt. eigenvalues --    0.53142   0.53365   0.53661   0.54043   0.54228
 Alpha virt. eigenvalues --    0.54480   0.54691   0.54898   0.55049   0.55271
 Alpha virt. eigenvalues --    0.55465   0.55573   0.55809   0.55911   0.56216
 Alpha virt. eigenvalues --    0.56375   0.56480   0.56804   0.56925   0.57000
 Alpha virt. eigenvalues --    0.57196   0.57361   0.57508   0.57620   0.57839
 Alpha virt. eigenvalues --    0.58018   0.58114   0.58138   0.58212   0.58585
 Alpha virt. eigenvalues --    0.58646   0.58710   0.58852   0.58899   0.59005
 Alpha virt. eigenvalues --    0.59256   0.59331   0.59342   0.59518   0.59596
 Alpha virt. eigenvalues --    0.59745   0.59935   0.60180   0.60354   0.60660
 Alpha virt. eigenvalues --    0.60796   0.60892   0.60907   0.61328   0.61417
 Alpha virt. eigenvalues --    0.61612   0.61810   0.62337   0.62417   0.62569
 Alpha virt. eigenvalues --    0.62622   0.63032   0.63178   0.63490   0.63630
 Alpha virt. eigenvalues --    0.63899   0.64211   0.64233   0.64415   0.64856
 Alpha virt. eigenvalues --    0.65064   0.65232   0.65449   0.65608   0.66291
 Alpha virt. eigenvalues --    0.66308   0.66480   0.66553   0.66863   0.67025
 Alpha virt. eigenvalues --    0.67180   0.67217   0.67565   0.68114   0.68181
 Alpha virt. eigenvalues --    0.68300   0.68494   0.68673   0.68742   0.69284
 Alpha virt. eigenvalues --    0.69414   0.69809   0.69981   0.70197   0.70553
 Alpha virt. eigenvalues --    0.70804   0.71135   0.71484   0.71571   0.72018
 Alpha virt. eigenvalues --    0.72156   0.72499   0.72696   0.72936   0.73267
 Alpha virt. eigenvalues --    0.73331   0.73880   0.74066   0.74595   0.74885
 Alpha virt. eigenvalues --    0.75217   0.75441   0.75860   0.75946   0.76135
 Alpha virt. eigenvalues --    0.76660   0.76753   0.76873   0.77036   0.77435
 Alpha virt. eigenvalues --    0.77679   0.77855   0.78334   0.78549   0.78646
 Alpha virt. eigenvalues --    0.79004   0.79315   0.79421   0.79582   0.79631
 Alpha virt. eigenvalues --    0.79943   0.80358   0.80397   0.80565   0.80638
 Alpha virt. eigenvalues --    0.80936   0.81137   0.81349   0.81482   0.81613
 Alpha virt. eigenvalues --    0.81791   0.82117   0.82440   0.82737   0.82849
 Alpha virt. eigenvalues --    0.83244   0.83283   0.83462   0.83544   0.83610
 Alpha virt. eigenvalues --    0.83809   0.83886   0.84240   0.84418   0.84589
 Alpha virt. eigenvalues --    0.84882   0.85097   0.85313   0.85561   0.85616
 Alpha virt. eigenvalues --    0.86014   0.86112   0.86312   0.86456   0.86678
 Alpha virt. eigenvalues --    0.86966   0.87051   0.87440   0.87476   0.87670
 Alpha virt. eigenvalues --    0.87810   0.87969   0.88440   0.88805   0.89051
 Alpha virt. eigenvalues --    0.89185   0.89217   0.89460   0.89727   0.89885
 Alpha virt. eigenvalues --    0.90080   0.90300   0.90323   0.90534   0.91027
 Alpha virt. eigenvalues --    0.91133   0.91251   0.91372   0.91676   0.91978
 Alpha virt. eigenvalues --    0.92120   0.92214   0.92473   0.92821   0.93081
 Alpha virt. eigenvalues --    0.93151   0.93518   0.93749   0.94111   0.94423
 Alpha virt. eigenvalues --    0.94452   0.94679   0.94915   0.95340   0.95691
 Alpha virt. eigenvalues --    0.95810   0.96061   0.96268   0.96517   0.96782
 Alpha virt. eigenvalues --    0.97016   0.97080   0.97424   0.97735   0.98091
 Alpha virt. eigenvalues --    0.98226   0.98437   0.98561   0.98617   0.99336
 Alpha virt. eigenvalues --    0.99384   0.99582   0.99859   1.00076   1.00464
 Alpha virt. eigenvalues --    1.00826   1.01195   1.01522   1.01628   1.01986
 Alpha virt. eigenvalues --    1.02396   1.02437   1.03382   1.03409   1.03910
 Alpha virt. eigenvalues --    1.04046   1.04516   1.04801   1.04885   1.05166
 Alpha virt. eigenvalues --    1.05454   1.05892   1.06234   1.06665   1.07004
 Alpha virt. eigenvalues --    1.07395   1.07680   1.07931   1.08415   1.08610
 Alpha virt. eigenvalues --    1.09184   1.09719   1.10144   1.10491   1.10916
 Alpha virt. eigenvalues --    1.11086   1.11297   1.11980   1.12273   1.12433
 Alpha virt. eigenvalues --    1.13020   1.13492   1.13857   1.13938   1.14429
 Alpha virt. eigenvalues --    1.14880   1.15682   1.16185   1.16376   1.16697
 Alpha virt. eigenvalues --    1.17068   1.17549   1.17943   1.18146   1.18287
 Alpha virt. eigenvalues --    1.18524   1.18962   1.19475   1.19945   1.20318
 Alpha virt. eigenvalues --    1.20811   1.20930   1.21221   1.21838   1.21999
 Alpha virt. eigenvalues --    1.22143   1.22633   1.22822   1.23203   1.23976
 Alpha virt. eigenvalues --    1.24596   1.25181   1.25387   1.25751   1.26170
 Alpha virt. eigenvalues --    1.26446   1.27041   1.27325   1.27669   1.28237
 Alpha virt. eigenvalues --    1.28422   1.28457   1.29035   1.29295   1.29691
 Alpha virt. eigenvalues --    1.30046   1.30678   1.30975   1.31555   1.31719
 Alpha virt. eigenvalues --    1.32241   1.32725   1.33215   1.33362   1.33879
 Alpha virt. eigenvalues --    1.34159   1.34567   1.34922   1.35392   1.35702
 Alpha virt. eigenvalues --    1.36119   1.36921   1.37308   1.38162   1.38538
 Alpha virt. eigenvalues --    1.38772   1.38965   1.39028   1.39810   1.40118
 Alpha virt. eigenvalues --    1.40693   1.41209   1.41365   1.41824   1.42481
 Alpha virt. eigenvalues --    1.42870   1.42990   1.43442   1.43547   1.43883
 Alpha virt. eigenvalues --    1.44931   1.45058   1.45375   1.45670   1.45853
 Alpha virt. eigenvalues --    1.46469   1.46715   1.46839   1.46939   1.47181
 Alpha virt. eigenvalues --    1.47441   1.47759   1.47998   1.48433   1.48465
 Alpha virt. eigenvalues --    1.48658   1.49010   1.49221   1.49695   1.49860
 Alpha virt. eigenvalues --    1.50041   1.50283   1.50520   1.50708   1.51204
 Alpha virt. eigenvalues --    1.51378   1.51700   1.52359   1.52492   1.52850
 Alpha virt. eigenvalues --    1.52948   1.53747   1.54635   1.55871   1.56107
 Alpha virt. eigenvalues --    1.56461   1.56898   1.57765   1.58406   1.58639
 Alpha virt. eigenvalues --    1.59178   1.59541   1.60309   1.61222   1.62356
 Alpha virt. eigenvalues --    1.63015   1.63904   1.64082   1.64540   1.65447
 Alpha virt. eigenvalues --    1.66021   1.66193   1.66553   1.67197   1.67821
 Alpha virt. eigenvalues --    1.68342   1.68753   1.68970   1.69231   1.70222
 Alpha virt. eigenvalues --    1.70632   1.71821   1.72032   1.72309   1.72570
 Alpha virt. eigenvalues --    1.72818   1.73555   1.74282   1.75201   1.75411
 Alpha virt. eigenvalues --    1.76008   1.76237   1.76418   1.76812   1.77222
 Alpha virt. eigenvalues --    1.77809   1.77937   1.78294   1.78545   1.78676
 Alpha virt. eigenvalues --    1.78887   1.79358   1.79616   1.79854   1.80301
 Alpha virt. eigenvalues --    1.80865   1.81021   1.81408   1.81593   1.81686
 Alpha virt. eigenvalues --    1.81919   1.82342   1.82500   1.82843   1.83479
 Alpha virt. eigenvalues --    1.83750   1.83880   1.84226   1.84625   1.84741
 Alpha virt. eigenvalues --    1.84873   1.85690   1.86211   1.86390   1.86479
 Alpha virt. eigenvalues --    1.86956   1.87189   1.87396   1.87486   1.88023
 Alpha virt. eigenvalues --    1.88394   1.88667   1.88934   1.89205   1.89549
 Alpha virt. eigenvalues --    1.89913   1.90065   1.90109   1.90831   1.90938
 Alpha virt. eigenvalues --    1.91499   1.91712   1.91800   1.92126   1.92341
 Alpha virt. eigenvalues --    1.92440   1.92515   1.92731   1.92835   1.93202
 Alpha virt. eigenvalues --    1.93303   1.93645   1.93885   1.94132   1.94262
 Alpha virt. eigenvalues --    1.94632   1.95240   1.95627   1.95863   1.96070
 Alpha virt. eigenvalues --    1.96832   1.97341   1.97669   1.97906   1.98077
 Alpha virt. eigenvalues --    1.98187   1.98884   1.99182   2.00665   2.01158
 Alpha virt. eigenvalues --    2.01474   2.02309   2.02424   2.02546   2.02811
 Alpha virt. eigenvalues --    2.03005   2.03017   2.03293   2.03894   2.04550
 Alpha virt. eigenvalues --    2.04633   2.05194   2.05284   2.05822   2.06216
 Alpha virt. eigenvalues --    2.06500   2.06925   2.07162   2.07468   2.07614
 Alpha virt. eigenvalues --    2.07790   2.07982   2.08355   2.08709   2.08919
 Alpha virt. eigenvalues --    2.09184   2.09547   2.09866   2.10049   2.10187
 Alpha virt. eigenvalues --    2.10348   2.10737   2.11012   2.11625   2.12021
 Alpha virt. eigenvalues --    2.12176   2.12273   2.12810   2.13273   2.13740
 Alpha virt. eigenvalues --    2.13905   2.14013   2.14245   2.14408   2.14700
 Alpha virt. eigenvalues --    2.15085   2.15312   2.15433   2.15954   2.16272
 Alpha virt. eigenvalues --    2.16684   2.16794   2.17318   2.17988   2.18089
 Alpha virt. eigenvalues --    2.18516   2.18795   2.19157   2.19201   2.19389
 Alpha virt. eigenvalues --    2.19630   2.19875   2.19987   2.20315   2.20562
 Alpha virt. eigenvalues --    2.20831   2.21000   2.21372   2.22207   2.22251
 Alpha virt. eigenvalues --    2.22649   2.23265   2.23610   2.23816   2.24067
 Alpha virt. eigenvalues --    2.24176   2.24561   2.24949   2.25355   2.25742
 Alpha virt. eigenvalues --    2.25946   2.26241   2.26380   2.26519   2.26886
 Alpha virt. eigenvalues --    2.27114   2.27308   2.27449   2.27920   2.28194
 Alpha virt. eigenvalues --    2.28274   2.28663   2.29002   2.29437   2.29754
 Alpha virt. eigenvalues --    2.30095   2.30868   2.31042   2.31528   2.31872
 Alpha virt. eigenvalues --    2.32009   2.32230   2.32578   2.32946   2.33193
 Alpha virt. eigenvalues --    2.33454   2.33627   2.33830   2.34426   2.34904
 Alpha virt. eigenvalues --    2.35286   2.35752   2.36236   2.36557   2.37312
 Alpha virt. eigenvalues --    2.37675   2.38090   2.38984   2.39076   2.39622
 Alpha virt. eigenvalues --    2.39670   2.40779   2.41134   2.41680   2.42751
 Alpha virt. eigenvalues --    2.43738   2.44149   2.45258   2.45669   2.47527
 Alpha virt. eigenvalues --    2.47993   2.48151   2.48577   2.48820   2.49151
 Alpha virt. eigenvalues --    2.49450   2.49730   2.50107   2.50873   2.51890
 Alpha virt. eigenvalues --    2.52859   2.54563   2.54891   2.56221   2.56406
 Alpha virt. eigenvalues --    2.56661   2.57224   2.58681   2.59106   2.59275
 Alpha virt. eigenvalues --    2.60058   2.60136   2.60161   2.60665   2.60821
 Alpha virt. eigenvalues --    2.61341   2.61833   2.62879   2.63191   2.63582
 Alpha virt. eigenvalues --    2.63989   2.64283   2.64856   2.65146   2.65322
 Alpha virt. eigenvalues --    2.65692   2.66369   2.66621   2.67472   2.68108
 Alpha virt. eigenvalues --    2.68968   2.70162   2.70203   2.71005   2.72799
 Alpha virt. eigenvalues --    2.73495   2.73974   2.74290   2.75050   2.75724
 Alpha virt. eigenvalues --    2.76188   2.76913   2.78285   2.78536   2.78913
 Alpha virt. eigenvalues --    2.79209   2.79360   2.79562   2.80250   2.80580
 Alpha virt. eigenvalues --    2.80839   2.81119   2.81183   2.81609   2.81840
 Alpha virt. eigenvalues --    2.82040   2.82372   2.82877   2.83352   2.83814
 Alpha virt. eigenvalues --    2.84170   2.85120   2.86029   2.86760   2.87649
 Alpha virt. eigenvalues --    2.88119   2.88539   2.88980   2.89631   2.91118
 Alpha virt. eigenvalues --    2.92647   2.94123   2.95235   2.95350   2.96439
 Alpha virt. eigenvalues --    2.97214   2.98377   2.98655   2.99260   2.99437
 Alpha virt. eigenvalues --    3.01888   3.02588   3.03535   3.03992   3.05498
 Alpha virt. eigenvalues --    3.07045   3.08567   3.10756   3.11526   3.11902
 Alpha virt. eigenvalues --    3.12475   3.13496   3.14080   3.16435   3.20710
 Alpha virt. eigenvalues --    3.24636   3.32003   3.32633   3.33837   3.35274
 Alpha virt. eigenvalues --    3.42272   3.44795   3.46578   3.50373  14.50074
          Condensed to atoms (all electrons):
 Mulliken charges:
               1
     1  C    0.261498
     2  C    0.041195
     3  C   -0.187124
     4  C   -0.185096
     5  N   -0.520531
     6  Ir  -0.214053
     7  O   -0.508060
     8  O   -0.524947
     9  O   -0.502702
    10  B    0.514801
    11  B    0.504894
    12  B    0.508929
    13  O   -0.518121
    14  O   -0.546509
    15  C    0.306303
    16  C    0.287474
    17  C    0.290552
    18  C    0.296632
    19  C    0.292453
    20  C    0.299136
    21  O   -0.525283
    22  C   -0.512851
    23  H    0.146274
    24  H    0.166458
    25  H    0.170435
    26  C   -0.496759
    27  H    0.156333
    28  H    0.137164
    29  H    0.185850
    30  C   -0.511181
    31  H    0.159879
    32  H    0.152015
    33  H    0.175581
    34  C   -0.510357
    35  H    0.148867
    36  H    0.158676
    37  H    0.177014
    38  C   -0.501347
    39  H    0.164066
    40  H    0.145083
    41  H    0.187289
    42  C   -0.505687
    43  H    0.152158
    44  H    0.167061
    45  H    0.160789
    46  C   -0.513139
    47  H    0.151189
    48  H    0.162844
    49  H    0.176924
    50  C   -0.511728
    51  H    0.153343
    52  H    0.149929
    53  H    0.186725
    54  C   -0.508839
    55  H    0.169006
    56  H    0.165851
    57  H    0.151158
    58  C   -0.501866
    59  H    0.168987
    60  H    0.151573
    61  H    0.157175
    62  C   -0.508678
    63  H    0.149226
    64  H    0.167952
    65  H    0.165704
    66  C   -0.498911
    67  H    0.164346
    68  H    0.145096
    69  H    0.175336
    70  C    0.101169
    71  C   -0.207184
    72  C   -0.186556
    73  C   -0.151627
    74  C   -0.139031
    75  H    0.127819
    76  C   -0.160252
    77  H    0.148611
    78  H    0.258487
    79  H    0.145213
    80  H    0.144147
    81  C    0.241266
    82  C    0.034529
    83  C   -0.173642
    84  C   -0.182506
    85  N   -0.472247
    86  C    0.160742
    87  C    0.100736
    88  H    0.183057
    89  H    0.217208
    90  H    0.241876
    91  H    0.179918
    92  H    0.190172
    93  H    0.181517
    94  C    0.033942
    95  C   -0.267357
    96  H    0.170222
    97  C    0.094158
    98  C   -0.205670
    99  C   -0.205537
   100  C   -0.173149
   101  H    0.173736
   102  C   -0.182315
   103  H    0.162024
   104  C    0.037347
   105  H    0.181032
   106  H    0.181277
   107  C    0.602972
   108  O   -0.521848
   109  O   -0.474863
   110  C   -0.257440
   111  H    0.193249
   112  H    0.186955
   113  H    0.178506
   114  C    0.043938
   115  C   -0.232316
   116  C   -0.188931
   117  C    0.087264
   118  H    0.160407
   119  C   -0.168563
   120  H    0.156974
   121  C   -0.191389
   122  H    0.162269
   123  H    0.160555
   124  C    0.082082
   125  C   -0.214338
   126  C   -0.197086
   127  C   -0.182537
   128  H    0.151155
   129  C   -0.218670
   130  H    0.152389
   131  C    0.342501
   132  H    0.141051
   133  H    0.203135
   134  N   -0.773910
   135  C    0.762256
   136  H    0.381869
   137  O   -0.521468
   138  C   -0.362048
   139  H    0.169890
   140  H    0.220129
   141  H    0.173662
   142  N   -0.649339
   143  H    0.344947
 Sum of Mulliken charges =  -0.00000
 Mulliken charges with hydrogens summed into heavy atoms:
               1
     1  C    0.261498
     2  C    0.283071
     3  C   -0.004067
     4  C   -0.005178
     5  N   -0.520531
     6  Ir  -0.214053
     7  O   -0.508060
     8  O   -0.524947
     9  O   -0.502702
    10  B    0.514801
    11  B    0.504894
    12  B    0.508929
    13  O   -0.518121
    14  O   -0.546509
    15  C    0.306303
    16  C    0.287474
    17  C    0.290552
    18  C    0.296632
    19  C    0.292453
    20  C    0.299136
    21  O   -0.525283
    22  C   -0.029684
    26  C   -0.017412
    30  C   -0.023705
    34  C   -0.025801
    38  C   -0.004909
    42  C   -0.025679
    46  C   -0.022181
    50  C   -0.021731
    54  C   -0.022824
    58  C   -0.024131
    62  C   -0.025796
    66  C   -0.014133
    70  C    0.101169
    71  C   -0.061971
    72  C   -0.058737
    73  C   -0.003016
    74  C    0.119457
    76  C   -0.016105
    81  C    0.241266
    82  C    0.251737
    83  C    0.016530
    84  C   -0.000989
    85  N   -0.472247
    86  C    0.160742
    87  C    0.100736
    94  C    0.033942
    95  C   -0.097135
    97  C    0.094158
    98  C   -0.031933
    99  C   -0.043513
   100  C    0.007882
   102  C   -0.001038
   104  C    0.037347
   107  C    0.602972
   108  O   -0.521848
   109  O   -0.474863
   110  C    0.301270
   114  C    0.043938
   115  C   -0.071909
   116  C   -0.031957
   117  C    0.087264
   119  C   -0.006295
   121  C   -0.030834
   124  C    0.082082
   125  C   -0.063183
   126  C   -0.044697
   127  C    0.020598
   129  C   -0.077619
   131  C    0.342501
   134  N   -0.392041
   135  C    0.762256
   137  O   -0.521468
   138  C    0.201633
   142  N   -0.304392
 APT charges:
               1
     1  C    0.076502
     2  C    0.050681
     3  C   -0.059509
     4  C    0.070442
     5  N   -0.166214
     6  Ir  -1.113781
     7  O   -0.993574
     8  O   -1.024485
     9  O   -0.965467
    10  B    1.363613
    11  B    1.328889
    12  B    1.271927
    13  O   -0.946988
    14  O   -1.070551
    15  C    0.548017
    16  C    0.497545
    17  C    0.473503
    18  C    0.456742
    19  C    0.489020
    20  C    0.507160
    21  O   -0.988529
    22  C    0.003480
    23  H   -0.024354
    24  H   -0.006407
    25  H   -0.001993
    26  C   -0.029479
    27  H   -0.002731
    28  H   -0.038758
    29  H    0.028465
    30  C   -0.038463
    31  H    0.002960
    32  H   -0.032033
    33  H    0.012218
    34  C   -0.011924
    35  H   -0.023982
    36  H   -0.005516
    37  H    0.007107
    38  C   -0.022255
    39  H   -0.007556
    40  H   -0.029953
    41  H    0.010311
    42  C   -0.007784
    43  H   -0.019049
    44  H    0.004096
    45  H    0.001575
    46  C   -0.009753
    47  H   -0.018193
    48  H   -0.002795
    49  H    0.006346
    50  C   -0.037434
    51  H   -0.005595
    52  H   -0.025072
    53  H    0.023102
    54  C   -0.003071
    55  H    0.000430
    56  H    0.004132
    57  H   -0.019736
    58  C   -0.033171
    59  H    0.000528
    60  H   -0.022752
    61  H   -0.003529
    62  C   -0.002685
    63  H   -0.017041
    64  H   -0.002526
    65  H   -0.001535
    66  C   -0.037886
    67  H    0.001251
    68  H   -0.029475
    69  H    0.030149
    70  C   -0.053649
    71  C   -0.097220
    72  C   -0.159840
    73  C   -0.004627
    74  C    0.223268
    75  H    0.046018
    76  C   -0.145959
    77  H   -0.016413
    78  H    0.336864
    79  H    0.021214
    80  H    0.040104
    81  C    0.116244
    82  C    0.106933
    83  C    0.057600
    84  C   -0.079977
    85  N   -0.286250
    86  C    0.011137
    87  C   -0.086750
    88  H    0.030876
    89  H    0.121149
    90  H    0.160521
    91  H    0.035260
    92  H    0.056942
    93  H    0.032421
    94  C    0.209629
    95  C   -0.132682
    96  H    0.032977
    97  C    0.371471
    98  C   -0.219101
    99  C   -0.238074
   100  C    0.144752
   101  H    0.041903
   102  C    0.116695
   103  H    0.044410
   104  C   -0.488275
   105  H    0.054440
   106  H    0.059512
   107  C    1.550882
   108  O   -0.981117
   109  O   -0.942208
   110  C    0.549626
   111  H   -0.002281
   112  H   -0.000718
   113  H   -0.026040
   114  C    0.091029
   115  C   -0.206452
   116  C   -0.139306
   117  C    0.292920
   118  H    0.048389
   119  C    0.042875
   120  H    0.031783
   121  C   -0.146749
   122  H   -0.002576
   123  H    0.030372
   124  C   -0.149833
   125  C    0.094770
   126  C    0.041781
   127  C   -0.205368
   128  H    0.032486
   129  C   -0.223716
   130  H    0.023479
   131  C    0.707401
   132  H    0.049193
   133  H    0.106600
   134  N   -1.286168
   135  C    1.729446
[...]
 0.00000424,0.00000116,-0.00000249,-0.00000076,0.00000200,0.00000387,-0
 .00000103,-0.00000067,-0.00000131,0.00000558,-0.00000162,0.00000125,0.
 00000063,0.00000072,0.00000191,-0.00000103,-0.00000051,-0.00000117,0.0
 0000050,-0.00000107,0.00000021,0.00000088,0.00000116,-0.00000115,-0.00
 000113,0.00000016,0.00000130,0.00000082,-0.00000109,-0.00000065,-0.000
 00114,0.00000105,0.00000026,0.00000125,0.00000118,0.00000113,-0.000000
 45,0.,-0.00000038,-0.00000066,0.00000119,0.00000152,0.00000002,-0.0000
 0111,-0.00000067,0.00000117,0.00000038,-0.00000126,0.00000020,0.000001
 67,0.00000236,-0.00000006,0.00000219,0.00000079,-0.00000223,-0.0000032
 9,-0.00000283,0.00000244,0.00000025,-0.00000025,0.00000209,0.00000113,
 0.00000029,-0.00000140,-0.00000089,0.00000102,-0.00000019,0.00000257,0
 .00000053,0.00000025,-0.00000114,0.00000111,0.00000159,0.00000034,-0.0
 0000128,-0.00000086,0.00000058,-0.00000094,-0.00000043,-0.00000070,0.0
 0000190,0.00000200,0.00000071,0.00000081,0.00000209,-0.00000110,-0.000
 00098,-0.00000157,0.00000012,0.00000165,0.00000302,0.00000003,-0.00000
 019,-0.00000122,0.00000076,0.00000118,0.00000084,0.00000060,0.00000109
 ,0.00000199,0.00000131,0.00000007,-0.00000081,-0.00000081,-0.00000079,
 -0.00000045,-0.00000077,0.00000047,0.00000163,0.00000209,-0.00000070,-
 0.00000089,-0.00000079,0.00000161,0.00000133,0.00000222,-0.00000076,-0
 .00000062,-0.00000184,0.00003238,0.00001154,-0.00001727,0.00003668,-0.
 00000292,0.00004580,0.00000905,0.00002704,-0.00003041,0.00001456,0.000
 02018,0.00001856,-0.00000557,-0.00005947,-0.00003082,-0.00001221,-0.00
 001547,-0.00000707,0.00004349,0.00000662,-0.00000085,0.00000924,0.0000
 0061,-0.00000847,-0.00004336,-0.00000512,-0.00004529,-0.00000784,-0.00
 000052,0.00001220,0.00000428,-0.00000017,-0.00000425,-0.00000178,-0.00
 001101,0.00000499,0.00000454,-0.00000015,-0.00000583,0.00000898,-0.000
 00616,-0.00000327,-0.00000520,0.00001046,0.00000515,-0.00000098,0.0000
 1322,-0.00000656,0.00001096,-0.00000218,-0.00000961,-0.00000953,-0.000
 00449,0.00000973,-0.00000019,0.00000005,-0.00000144,-0.00000470,-0.000
 00222,-0.00000330,-0.00000103,-0.00000462,-0.00000031,-0.00000085,0.00
 000122,-0.00000184,0.00000035,-0.00000504,0.00000749,-0.00000203,-0.00
 000463,-0.00000561,0.00003762,-0.00001544,0.00000139,-0.00001725,0.000
 00530,0.00000634,0.00000127,0.00000185,-0.00000596,-0.00012614,-0.0000
 2888,0.00006787,0.00012143,0.00005242,-0.00013315,0.00014846,0.0000059
 2,0.00004740,-0.00010169,0.00004697,-0.00015314,0.00002691,-0.00000471
 ,0.00000378,0.00000234,-0.00005810,0.00018151,0.00001836,0.00000795,-0
 .00002497,0.00061303,0.00000800,0.00003095,-0.00004831,-0.00000111,-0.
 00001398,-0.00004457,-0.00004124,0.00004661,-0.00204897,0.00026910,-0.
 00085576,0.00177606,0.00001053,0.00052916,0.00062037,-0.00009476,0.000
 15246,-0.00057621,0.00014498,-0.00006427,0.00021014,-0.00011765,0.0000
 9564,-0.00009615,-0.00017723,-0.00062382,-0.00012316,0.00054132,-0.000
 10640,0.00001048,0.00000093,-0.00000322,-0.00003871,-0.00002767,-0.000
 00921,-0.00002540,-0.00001725,0.00000587,0.00006922,0.00007638,0.00001
 700,0.00000759,0.00000250,0.00000058,0.00000122,0.00001179,-0.00000734
 ,-0.00000194,-0.00000323,-0.00000064,-0.00001866,-0.00002528,-0.000004
 70,-0.00000145,-0.00000109,0.00000037,-0.00000224,0.00000834,0.0000030
 6,-0.00010021,-0.00005460,0.00004726,0.00004784,0.00013364,0.00009911,
 -0.00002599,0.00000106,-0.00001590,0.00005659,-0.00006960,-0.00013951,
 0.00001071,0.00000377,-0.00000761,-0.00008047,-0.00014046,-0.00004888,
 -0.00001571,-0.00001326,0.00001508,-0.00014652,0.00088949,-0.00033958,
 -0.00003141,-0.00006119,0.00008813,0.00016753,0.00012897,0.00009177,-0
 .00314160,-0.00095164,0.00059079,0.01068701,0.00037267,-0.01432801,-0.
 00270828,-0.00395060,0.00135877,0.00099737,-0.00685376,0.00113340,-0.0
 0802826,0.02086970,0.01936444,0.00071839,-0.00049521,0.00003042,-0.005
 25167,-0.00191586,0.00107528,0.00034030,0.00067837,-0.00046955,-0.1109
 3321,0.07371579,0.11909274,0.11693997,-0.00000228,-0.00000493,0.000010
 38,0.00000646,-0.00000428,-0.00000271,0.00000010,-0.00000433,0.0000013
 8,0.00000609,-0.00000578,0.00000042,0.00001483,-0.00000468,-0.00000284
 ,-0.00001357,-0.00001481,-0.00001106,0.00000864,-0.00001277,-0.0000009
 0,0.00000426,-0.00001046,0.00001072,0.00000325,-0.00000678,-0.00000060
 ,-0.00000491,0.00001526,-0.00000985,-0.00000893,0.00001800,-0.00000088
 ,-0.00000838,0.00001228,0.00000495,0.00000409,-0.00001172,-0.00000355,
 0.00000990,-0.00001378,-0.00000343,-0.00000417,0.00000651,0.00000446,-
 0.00000227,0.00000184,0.00000083,-0.00000290,0.00000192,0.00000004,-0.
 00000184,0.00000610,-0.00000304,0.00000016,0.00000647,-0.00000447,-0.0
 0000219,0.00000746,-0.00000732,0.00000358,-0.00001546,0.00001206,0.000
 00079,0.00000004,0.00000046,0.00000015,-0.00000025,-0.00000016,0.00000
 045,-0.00000025,0.00000093,-0.00000051,-0.00000025,-0.00000106,0.00000
 025,-0.00000002,-0.00000095,-0.00000008,-0.00000003,0.00000062,0.00000
 032,0.00000020,-0.00000006,-0.00000048,-0.00000030,0.00000003,0.000000
 67,0.00000054,-0.00000179,0.00000024,0.00000026,0.00000048,0.00000047,
 -0.00000067,-0.00000070,-0.00000033,-0.00000067,0.00000094,0.00000045,
 -0.00000056,-0.00000104,0.00000092,-0.00000045,-0.00000020,-0.00000010
 ,0.00000033,0.00000105,-0.00000099,-0.00000022,-0.00000067,0.00000118,
 -0.00000089,-0.00000036,-0.00000045,0.00000002,-0.00000012,0.00000070,
 -0.00000101,0.00000145,-0.00000035,0.00000089,-0.00000076,0.00000029,-
 0.00000027,0.00000029,0.00000020,-0.00000046,0.00000106,-0.00000006,0.
 00000052,-0.00000013,-0.00000003,-0.00000084,-0.00000092,0.00000022,-0
 .00000099,0.00000093,0.00000015,-0.00000042,0.00000059,-0.00000100,0.0
 0000208,0.00000074,0.00000144,-0.00000147,-0.00000146,-0.00000033,-0.0
 0000174,0.00000151,0.00000077,0.00000166,-0.00000169,0.00000110,-0.000
 00001,0.00000068,-0.00000179,-0.00000085,-0.00000027,-0.00000074,-0.00
 000078,0.00000073,0.00000053,0.00000012,-0.00000111,0.00000080,-0.0000
 0077,0.00000109,-0.00000020,0.00000013,-0.00000026,-0.00000028,-0.0000
 0161,0.00000100,0.00000119,-0.00000007,-0.00000232,0.00000005,-0.00000
 037,0.00000039,-0.00000132,0.00000053,0.00000120,-0.00000038,0.0000002
 0,-0.00000060,-0.00000042,-0.00000002,0.00000006,0.00000084,-0.0000004
 0,-0.00000039,0.,-0.00000068,0.00000117,0.00000083,-0.00000092,-0.0000
 0060,0.00000101,-0.00000021,-0.00000041,-0.00000013,0.00000009,0.00000
 013,-0.00000037,0.00000057,0.00000047,-0.00000888,-0.00000470,0.000008
 54,-0.00000876,-0.00000202,-0.00001181,-0.00000294,-0.00001350,0.00000
 810,-0.00000415,-0.00000840,-0.00000414,-0.00000006,0.00002409,0.00000
 795,0.00000346,0.00000886,0.00000073,-0.00001564,-0.00000476,0.0000001
 5,-0.00000272,0.00000118,0.00000061,0.00001448,0.00000480,0.00001617,0
 .00000048,0.00000315,-0.00000497,-0.00000146,0.00000204,0.00000109,-0.
 00000274,0.00000831,-0.00000507,-0.00000804,0.00000246,0.00000244,-0.0
 0000871,0.00001005,0.00000687,0.00001275,-0.00000851,-0.00000696,0.000
 00977,-0.00001709,0.00000535,-0.00001871,0.00001020,0.00000610,0.00001
 633,0.00000021,-0.00001185,0.00000129,-0.00000004,-0.00000064,-0.00000
 106,0.00000377,-0.00000012,-0.00000354,0.00000655,-0.00000014,-0.00000
 154,-0.00000038,0.00000187,-0.00000251,0.00000288,-0.00001405,-0.00000
 078,0.00000229,0.00000227,-0.00005473,0.00002308,-0.00000130,0.0000286
 4,-0.00000601,-0.00000538,-0.00000389,-0.00000297,0.00000738,0.0000362
 7,0.00001263,-0.00001459,-0.00002321,-0.00002618,0.00004702,-0.0000498
 5,-0.00002200,-0.00000194,0.00003249,-0.00000993,0.00001816,-0.0000046
 4,0.00000482,-0.00000101,-0.00002362,0.00000037,-0.00007947,-0.0000103
 0,0.00000305,0.00001276,-0.00013413,0.00000402,0.00010676,0.00003006,0
 .00000559,0.00001594,0.00000990,0.00003680,0.00000503,0.00031138,0.000
 43892,-0.00085377,0.00011034,-0.00088615,0.00019219,-0.00071730,-0.000
 39142,0.00064867,0.00082811,0.00047818,0.00018463,-0.00011288,-0.00008
 211,-0.00007093,-0.00012471,0.00017654,0.00009993,0.00022151,-0.000657
 01,0.00002026,-0.00002695,-0.00000272,0.00000146,0.00008262,0.00003080
 ,0.00000902,0.00004750,0.00003681,-0.00000863,-0.00017145,-0.00013921,
 0.00000607,-0.00001819,-0.00000260,-0.00000241,-0.00000795,-0.00002281
 ,0.00001177,0.00000617,0.00000655,0.00000051,0.00005627,0.00005663,0.0
 0000715,0.00000339,0.00000959,-0.00000027,-0.00000155,-0.00001413,-0.0
 0000297,0.00014021,0.00014183,-0.00001053,-0.00022492,0.00002345,0.000
 07465,-0.00009532,-0.00013345,-0.00001767,0.00030424,0.00035879,-0.000
 06858,0.00002598,0.00004059,0.00001164,0.00039318,0.00017858,-0.000058
 64,0.00003531,0.00001896,-0.00001912,-0.00105667,-0.00137870,0.0007529
 1,-0.00008128,0.00003344,-0.00000662,0.00011410,0.00017579,0.00005576,
 0.00287553,0.00196585,0.00118371,0.01902509,-0.01527234,-0.02150518,-0
 .00360112,-0.00005710,-0.00031891,-0.00472252,-0.00510238,-0.00133402,
 -0.00335372,0.00789692,0.00842806,0.00024616,-0.00017529,0.00043505,-0
 .00274651,-0.00041917,0.00111959,-0.00030139,-0.00015395,-0.00048849,0
 .07561011,-0.19883180,-0.17532195,-0.08288765,0.21164363,0.00000121,-0
 .00000271,0.00000004,-0.00000316,0.00000150,0.00000087,0.00000171,-0.0
 0000147,0.00000094,-0.00000271,-0.00000193,0.00000423,-0.00000565,0.00
 000360,-0.00000487,0.00003257,0.00001289,0.00001784,0.00001919,-0.0000
 0545,-0.00000651,0.00001525,0.00000079,0.00000402,0.00001742,0.0000153
 3,0.00000370,-0.00002182,-0.00000416,-0.00000602,-0.00003029,0.0000039
 9,0.00001266,-0.00002127,-0.00001827,-0.00000938,0.00001064,0.00001819
 ,0.00000759,0.00002043,-0.00000067,-0.00001274,-0.00000940,0.00000472,
 0.00000399,-0.00001063,-0.00000018,0.00000457,-0.00000446,-0.00000636,
 -0.00000427,-0.00000515,-0.00000926,0.00000063,-0.00000467,0.00000134,
 -0.00000181,-0.00000430,-0.00000405,-0.00000155,0.00001203,0.00000548,
 0.00000026,0.00000053,-0.00000090,0.00000022,0.00000163,0.00000014,-0.
 00000089,-0.00000081,0.00000002,0.00000007,-0.00000060,0.00000036,0.00
 000066,0.00000097,-0.00000002,0.00000065,-0.00000104,0.00000046,-0.000
 00024,0.00000212,0.00000010,-0.00000067,-0.00000083,-0.00000031,0.0000
 0010,-0.00000013,-0.00000261,0.00000008,-0.00000144,0.00000034,0.00000
 075,0.00000227,-0.00000095,-0.00000045,-0.00000053,0.00000276,-0.00000
 030,0.00000091,0.00000009,0.00000017,0.00000132,-0.00000068,-0.0000001
 9,-0.00000081,0.00000071,-0.00000088,-0.00000021,0.00000016,0.00000056
 ,-0.00000029,-0.00000046,0.00000005,0.00000172,0.00000047,-0.00000088,
 -0.00000087,-0.00000022,0.00000007,-0.00000024,0.00000049,0.00000122,0
 .00000073,-0.00000024,-0.00000023,-0.00000060,-0.00000005,0.00000028,0
 .00000146,-0.00000015,-0.00000080,-0.00000073,0.00000043,0.00000043,-0
 .00000193,0.00000114,0.00000074,0.00000105,0.00000022,0.00000102,0.000
 00184,-0.00000220,-0.00000218,-0.00000206,0.00000127,0.00000059,-0.000
 00128,0.00000148,-0.00000012,0.00000141,-0.00000112,-0.00000022,0.0000
 0003,-0.00000045,0.00000103,0.00000048,0.00000054,-0.00000043,0.000000
 27,0.00000064,0.00000043,-0.00000028,-0.00000093,0.00000019,-0.0000009
 3,-0.00000011,-0.00000034,0.00000120,0.00000128,0.00000021,-0.00000021
 ,0.00000095,-0.00000054,-0.00000014,-0.00000100,-0.00000024,0.00000112
 ,0.00000178,0.00000025,-0.00000039,-0.00000073,0.00000024,0.00000064,0
 .00000051,-0.00000002,0.00000046,0.00000100,0.00000083,0.00000046,-0.0
 0000069,-0.00000052,-0.00000073,-0.00000015,-0.00000038,0.00000011,0.0
 0000078,0.00000102,-0.00000009,-0.00000063,-0.00000060,0.00000069,0.00
 000068,0.00000124,-0.00000039,-0.00000021,-0.00000099,0.00001191,0.000
 00558,-0.00001245,0.00002198,0.00000144,0.00002293,0.00000102,0.000012
 52,-0.00001344,0.00000598,0.00000937,0.00000833,-0.00000124,-0.0000245
 2,-0.00001429,-0.00000567,-0.00000766,-0.00000483,0.00001960,0.0000029
 3,-0.00000141,0.00000573,-0.00000022,-0.00000549,-0.00001790,-0.000002
 25,-0.00001754,-0.00000505,-0.00000193,0.00000518,0.00000219,0.0000001
 2,-0.00000190,-0.00000311,-0.00000398,0.00000278,0.00000075,0.,-0.0000
 0142,0.00000192,-0.00000112,0.00000069,-0.00000323,0.00000516,0.000006
 37,0.00000372,0.00000480,-0.00000683,0.00000212,0.00000364,-0.00000652
 ,0.00000067,-0.00000501,0.00000343,0.00000095,0.00000024,-0.00000090,-
 0.00000368,-0.00000074,-0.00000122,-0.00000078,-0.00000151,0.00000015,
 -0.00000066,0.00000175,-0.00000049,-0.00000040,-0.00000462,0.00000348,
 -0.00000240,-0.00000268,-0.00000502,0.00001163,-0.00000448,0.00000101,
 -0.00000418,0.00000105,0.00000173,0.00000036,0.00000174,-0.00000184,-0
 .00006072,-0.00000895,0.00002491,0.00002968,0.00002887,-0.00008380,0.0
 0007111,0.00000964,-0.00000950,-0.00004923,0.00000514,-0.00002646,0.00
 000681,-0.00000269,0.00000334,0.00006339,-0.00004447,0.00012861,0.0000
 1819,0.00000732,-0.00001432,0.00018306,0.00009738,-0.00019298,-0.00005
 373,0.00000568,-0.00002426,-0.00000508,-0.00000630,0.00001353,-0.00042
 469,-0.00062442,0.00184980,-0.00011090,0.00026965,-0.00123767,0.001375
 58,0.00038674,-0.00146168,-0.00116834,0.00028711,0.00060470,0.00028675
 ,-0.00019503,0.00003490,-0.00068821,-0.00061350,-0.00081416,-0.0002146
 1,0.00061019,0.00003818,0.00000074,0.00000070,-0.00000493,-0.00000064,
 -0.00000420,-0.00000748,-0.00000178,-0.00000099,0.00000019,0.00000432,
 -0.00000427,0.00001250,0.00000052,0.00000051,0.00000492,-0.00000318,0.
 00000043,-0.00000233,0.00000041,-0.00000070,0.00000100,0.00000440,-0.0
 0000036,-0.00000453,0.00000025,0.00000226,0.00000138,-0.00000222,0.000
 00211,0.00000448,-0.00000718,0.00001316,0.00001124,-0.00002799,0.00002
 062,0.00000627,-0.00000279,-0.00003694,-0.00000226,0.00001881,-0.00003
 006,-0.00006022,0.00000530,0.00000475,-0.00000013,0.00001893,0.0000916
 5,-0.00006916,0.00000689,-0.00000507,0.00000783,-0.00045340,0.00008122
 ,-0.00034643,0.00003485,-0.00003554,0.00003761,0.00002262,-0.00005464,
 0.00012241,-0.00024338,0.00174459,-0.00108647,-0.00070407,0.00582207,-
 0.00500835,0.00115627,0.00018068,0.00233376,0.00157515,-0.00010965,0.0
 0487963,-0.00155133,-0.00353355,-0.00528186,-0.00014597,-0.00022719,-0
 .00018497,0.00140918,0.00092857,0.00004150,-0.00056821,0.00051780,0.00
 072537,0.12692340,-0.19232046,-0.21041123,-0.12678397,0.18673320,0.215
 47144\\0.00000433,-0.00000227,-0.00000150,-0.00000351,-0.00000343,0.00
 000374,0.00000167,-0.00000444,0.00000458,0.00000119,0.00000555,-0.0000
 0720,0.00000234,0.00000426,-0.00000576,0.00000214,0.00000117,0.0000006
 4,0.00000089,-0.00000388,0.00000082,-0.00000467,-0.00000042,-0.0000017
 2,0.00000162,-0.00000244,-0.00000292,0.00000322,0.00000136,-0.00000365
 ,-0.00000187,0.00000204,-0.00000276,-0.00000234,-0.00000296,0.00000048
 ,0.00000306,0.00000125,0.,-0.00000205,-0.00000300,0.00000243,0.0000009
 0,-0.00000116,0.00000028,0.00000203,-0.00000373,0.00000067,-0.00000058
 ,-0.00000142,0.00000447,-0.00000064,-0.00000064,-0.00000574,0.00000042
 ,-0.00000245,0.00000248,-0.00000134,-0.00000654,0.00000224,-0.00000084
 ,-0.00000064,0.00000292,-0.00000384,-0.00000159,0.00000147,-0.00000085
 ,-0.00000210,-0.00000014,-0.00000152,-0.00000165,-0.00000133,-0.000000
 31,-0.00000171,0.00000083,0.00000076,-0.00000192,-0.00000790,-0.000000
 12,-0.00000347,0.00000372,-0.00000282,-0.00000279,0.00000157,-0.000000
 63,-0.00000106,0.00000063,-0.00000129,0.00000250,-0.00000090,0.0000002
 7,-0.00000373,0.00000185,0.00000031,-0.00000345,-0.00000106,-0.0000028
 6,-0.00000304,0.00000024,-0.00000116,0.00000181,-0.00000552,-0.0000002
 2,-0.00000304,0.00000033,0.00000060,-0.00000510,0.00000346,0.00000015,
 -0.00000322,0.00000043,-0.00000363,-0.00000252,0.00000142,0.00000093,-
 0.00000183,0.00000020,-0.00000119,0.00000056,-0.00000217,-0.00000128,-
 0.00000139,0.00000088,0.00000258,-0.00000014,0.00000029,-0.00000147,-0
 .00000178,0.00000068,-0.00000161,-0.00000181,-0.00000053,-0.00000065,-
 0.00000152,-0.00000001,0.00000225,0.00000582,-0.00000007,-0.00000185,-
 0.00000058,-0.00000064,-0.00000038,-0.00000104,-0.00000022,-0.00000216
 ,-0.00000254,-0.00000045,-0.00000007,-0.00000117,0.00000028,0.00000007
 ,0.00000055,-0.00000014,-0.00000028,-0.00000100,-0.00000059,-0.0000002
 8,0.00000055,-0.00000052,0.00000222,-0.00000218,0.00000026,0.00000147,
 -0.00000080,0.00000021,-0.00000003,-0.00000038,-0.00000076,0.00000104,
 -0.00000094,-0.00000031,0.00000637,-0.00000477,0.00000126,-0.00000189,
 0.00000072,0.00000118,0.00000083,-0.00000030,-0.00000048,0.00000133,-0
 .00000145,-0.00000158,-0.00000092,-0.00000153,0.00000281,0.00000148,-0
 .00000190,-0.00000116,0.00000219,-0.00000278,-0.00000151,0.00000096,-0
 .00000075,-0.00000219,-0.00000080,-0.00000404,-0.00000350,0.00000069,-
 0.00000157,0.00000049,0.00000179,-0.00000092,0.00000085,0.00000034,-0.
 00000099,0.00000003,0.00000365,0.00000015,-0.00000177,-0.00001420,-0.0
 0000171,0.00000642,-0.00000715,-0.00000167,-0.00000712,0.00001267,0.00
 000114,-0.00000880,0.00000517,0.00000084,0.00000211,-0.00000096,0.0000
 0074,0.00000431,-0.00000450,-0.00000190,0.00000059,-0.00000255,-0.0000
 0029,0.00000344,-0.00000028,-0.00000133,0.00000044,0.00000216,0.000001
 42,0.00000190,-0.00000059,-0.00000078,-0.00000071,-0.00000011,-0.00000
 068,0.00000035,0.00000223,0.00000131,-0.00000038,0.00000484,0.00000079
 ,-0.00000488,-0.00000078,-0.00000099,-0.00000057,-0.00000240,-0.000001
 95,0.00000363,-0.00000353,-0.00000171,0.00000312,0.00000057,-0.0000003
 0,0.00000228,0.00000168,-0.00000060,-0.00000231,-0.00000108,0.00000166
 ,-0.00000187,-0.00000015,-0.00000035,-0.00000005,0.00000223,-0.0000032
 4,0.00000159,-0.00000055,0.00000157,0.00000055,0.00000089,0.00000065,0
 .00000070,0.00000406,0.00000003,-0.00000033,0.00000273,-0.00000173,0.0
 0000290,0.00000052,0.00000226,-0.00000269,-0.00000189,-0.00000040,0.00
 000591,-0.00000706,0.00000068,-0.00000289,-0.00000099,0.00000055,-0.00
 000013,0.00000537,0.00000250,-0.00000390,0.00000151,0.00000060,0.00000
 205,-0.00000230,0.00000107,0.00000266,-0.00000004,0.00000172,-0.000002
 06,-0.00000279,0.00000164,0.00000253,-0.00000181,0.00000160,0.00000095
 ,0.00000010,0.00000162,-0.00000018,0.00000283,0.00000037,0.00000138,-0
 .00000380,0.00000345,-0.00000154,-0.00000224,0.00000325,0.00000027,0.0
 0000152,-0.00000236,0.00000430,-0.00000181,0.00000438,-0.00000261,-0.0
 0000187,0.00000578,0.,-0.00000147,0.00000222,0.00000088,-0.00000196,-0
 .00000395,0.00000002,-0.00000621,0.00000575,0.00000141,0.00000226,0.00
 000587,-0.00000022,0.00000599,0.00000005,-0.00000181,0.00000151,-0.000
 00056,-0.00000041,-0.00000015,0.00000622,0.00000002,0.00000062,-0.0000
 0082,-0.00000046,0.00000267,-0.00000012,0.00000005,0.00000313,-0.00000
 227,-0.00000066,0.00000166,0.00000244,-0.00000021,0.00000641,0.0000057
 6,-0.00000007,-0.00000012,0.00000621,0.00000354,-0.00000568,-0.0000074
 2,-0.00000221,-0.00000059,0.00000010,-0.00000184,0.00000127,0.00000164
 ,-0.00000071,0.00000749,0.00000998,-0.00000023,-0.00000104,0.00000148,
 0.00000122,0.00000216,0.00000493,0.00000093,-0.00000074,0.00000014,-0.
 00000049,-0.00000052,0.00000296,0.00000103,0.00000005,-0.00000020,-0.0
 0000168,-0.00000136,0.00000320,0.00000227,-0.00000052,0.00000225,0.000
 00043,-0.00000068,0.00000267,0.00000004,-0.00000338,-0.00000519,0.0000
 0317,0.00000020,0.00001017,-0.00000054,0.,0.00000584,-0.00000060,0.000
 00047,0.00000340,0.00000073,0.00000063,0.00000433,-0.00000193,-0.00000
 192,0.00000488,0.00000248\\\@
 The archive entry for this job was punched.


     ON THE SURVIVAL OF THE FITTEST -
 "STRONG REPRESENTATIVES FROM EACH PAST ERA THRIVE TODAY,
 SUCH AS PROGRAMMING IN THE THIRTY YEAR OLD LANGUAGE KNOWN
 AS FORTRAN, AND EVEN IN THE ANCIENT SCRIPT KNOWN AS DIRECT
 MACHINE CODE. SOME PEOPLE MIGHT LOOK ON SUCH RELICS AS LIVING
 FOSSILS; OTHERS WOULD POINT OUT THAT EVEN A VERY OLD SPECIES
 MIGHT STILL BE FILLING A PARTICULAR ECOLOGICAL NICHE."
     -- ALAN KAY, SCI.AM. SEPTEMBER 1984
 Job cpu time:       3 days 13 hours  6 minutes 19.5 seconds.
 Elapsed time:       0 days  5 hours 27 minutes 40.8 seconds.
 File lengths (MBytes):  RWF=  22489 Int=      0 D2E=      0 Chk=     99 Scr=      1
 Normal termination of Gaussian 16 at Sun Dec  8 03:46:39 2024.
