/mnt/lustre/scratch/nvme/SLURM/9664124/usccqdma.DHrt1XuvfP
OMP_STACKSIZE=0m
GAUSS_PDEF=16
GAUSS_MDEF=65536MB
GAUSS_RDEF=SCF=Direct
 Entering Gaussian System, Link 0=g16.exe
 Initial command:
 /opt/cesga/2020/software/Core/g16/c1/l1.exe "/mnt/lustre/scratch/nvme/SLURM/9664124/usccqdma.DHrt1XuvfP/Gau-342163.inp" -scrdir="/mnt/lustre/scratch/nvme/SLURM/9664124/usccqdma.DHrt1XuvfP/"
 Default is to use a total of  16 processors:
                               16 via shared-memory
                                1 via Linda
 Entering Link 1 = /opt/cesga/2020/software/Core/g16/c1/l1.exe PID=    342190.
  
 Copyright (c) 1988-2019, Gaussian, Inc.  All Rights Reserved.
  
 This is part of the Gaussian(R) 16 program.  It is based on
 the Gaussian(R) 09 system (copyright 2009, Gaussian, Inc.),
 the Gaussian(R) 03 system (copyright 2003, Gaussian, Inc.),
 the Gaussian(R) 98 system (copyright 1998, Gaussian, Inc.),
 the Gaussian(R) 94 system (copyright 1995, Gaussian, Inc.),
 the Gaussian 92(TM) system (copyright 1992, Gaussian, Inc.),
 the Gaussian 90(TM) system (copyright 1990, Gaussian, Inc.),
 the Gaussian 88(TM) system (copyright 1988, Gaussian, Inc.),
 the Gaussian 86(TM) system (copyright 1986, Carnegie Mellon
 University), and the Gaussian 82(TM) system (copyright 1983,
 Carnegie Mellon University). Gaussian is a federally registered
 trademark of Gaussian, Inc.
  
 This software contains proprietary and confidential information,
 including trade secrets, belonging to Gaussian, Inc.
  
 This software is provided under written license and may be
 used, copied, transmitted, or stored only in accord with that
 written license.
  
 The following legend is applicable only to US Government
 contracts under FAR:
  
                    RESTRICTED RIGHTS LEGEND
  
 Use, reproduction and disclosure by the US Government is
 subject to restrictions as set forth in subparagraphs (a)
 and (c) of the Commercial Computer Software - Restricted
 Rights clause in FAR 52.227-19.
  
 Gaussian, Inc.
 340 Quinnipiac St., Bldg. 40, Wallingford CT 06492
  
  
 ---------------------------------------------------------------
 Warning -- This program may not be used in any manner that
 competes with the business of Gaussian, Inc. or will provide
 assistance to any competitor of Gaussian, Inc.  The licensee
 of this program is prohibited from giving any competitor of
 Gaussian, Inc. access to this program.  By using this program,
 the user acknowledges that Gaussian, Inc. is engaged in the
 business of creating and licensing software in the field of
 computational chemistry and represents and warrants to the
 licensee that it is not a competitor of Gaussian, Inc. and that
 it will not use this program in any manner prohibited above.
 ---------------------------------------------------------------
  

 Cite this work as:
 Gaussian 16, Revision C.01,
 M. J. Frisch, G. W. Trucks, H. B. Schlegel, G. E. Scuseria, 
 M. A. Robb, J. R. Cheeseman, G. Scalmani, V. Barone, 
 G. A. Petersson, H. Nakatsuji, X. Li, M. Caricato, A. V. Marenich, 
 J. Bloino, B. G. Janesko, R. Gomperts, B. Mennucci, H. P. Hratchian, 
 J. V. Ortiz, A. F. Izmaylov, J. L. Sonnenberg, D. Williams-Young, 
 F. Ding, F. Lipparini, F. Egidi, J. Goings, B. Peng, A. Petrone, 
 T. Henderson, D. Ranasinghe, V. G. Zakrzewski, J. Gao, N. Rega, 
 G. Zheng, W. Liang, M. Hada, M. Ehara, K. Toyota, R. Fukuda, 
 J. Hasegawa, M. Ishida, T. Nakajima, Y. Honda, O. Kitao, H. Nakai, 
 T. Vreven, K. Throssell, J. A. Montgomery, Jr., J. E. Peralta, 
 F. Ogliaro, M. J. Bearpark, J. J. Heyd, E. N. Brothers, K. N. Kudin, 
 V. N. Staroverov, T. A. Keith, R. Kobayashi, J. Normand, 
 K. Raghavachari, A. P. Rendell, J. C. Burant, S. S. Iyengar, 
 J. Tomasi, M. Cossi, J. M. Millam, M. Klene, C. Adamo, R. Cammi, 
 J. W. Ochterski, R. L. Martin, K. Morokuma, O. Farkas, 
 J. B. Foresman, and D. J. Fox, Gaussian, Inc., Wallingford CT, 2019.
 
 ******************************************
 Gaussian 16:  ES64L-G16RevC.01  3-Jul-2019
                 7-Dec-2024 
 ******************************************
 Default route: SCF=Direct
 ----------------------------------------------------
 # m06/genecp scf=tight int=ultrafine 5d freq=noraman
 ----------------------------------------------------
 1/10=4,30=1,38=1/1,3;
 2/12=2,17=6,18=5,40=1/2;
 3/5=7,8=1,11=2,16=1,17=8,25=1,30=1,71=2,74=-54,75=-5,140=1/1,2,3;
 4//1;
 5/5=2,32=2,38=5,98=1/2;
 8/6=4,10=90,11=11/1;
 11/6=1,8=1,9=11,15=111,16=1/1,2,10;
 10/6=1/2;
 6/7=2,8=2,9=2,10=2,28=1/1;
 7/8=1,10=1,25=1/1,2,3,16;
 1/10=4,30=1/3;
 99//99;
 ------
 OPT-TS
 ------
 Symbolic Z-matrix:
 Charge =  0 Multiplicity = 1
 C                    -2.99797  -1.54172   0.20525 
 C                    -1.90037  -2.38955  -1.64833 
 C                    -2.76394  -3.47366  -1.73128 
 C                    -3.78511  -3.5793   -0.7957 
 C                    -3.90305  -2.60532   0.18426 
 C                    -3.03913  -0.48215   1.23594 
 C                    -2.02287   1.41441   2.11872 
 C                    -2.96183   1.50225   3.13765 
 C                    -3.97765   0.55664   3.19068 
 C                    -4.01551  -0.44453   2.23236 
 H                    -1.06871  -2.25345  -2.34133 
 H                    -4.48343  -4.4136   -0.82326 
 H                    -4.69245  -2.68173   0.92707 
 H                    -1.19175   2.11462   2.02635 
 H                    -2.88944   2.30085   3.87149 
 H                    -4.73435   0.59389   3.97192 
 H                    -4.80459  -1.19073   2.26266 
 N                    -2.01783  -1.44793  -0.70912 
 N                    -2.06539   0.45052   1.19074 
 Ir                   -0.51582   0.28001  -0.43963 
 O                     1.94443   2.08441  -0.67925 
 O                     2.38899  -0.79039  -0.83161 
 O                     1.16116  -0.35369   2.12595 
 B                     1.08803  -0.66823  -1.30392 
 B                     0.79841   1.74404   0.02734 
 B                     0.44449  -0.86302   1.05638 
 O                     0.25855  -2.23492   1.20838 
 O                     0.65347   2.59789   1.12514 
 C                     1.70524   3.57589   1.08307 
 C                     2.76456   2.87264   0.18794 
 C                     1.67011  -1.45838   2.89076 
 C                     0.65689  -2.58463   2.5432 
 C                     3.1783   -1.39513  -1.86415 
 C                     2.11443  -2.22508  -2.63036 
 O                     0.9452   -1.40165  -2.48563 
 C                     3.6224    3.80311  -0.64514 
 H                     4.20502   4.48085  -0.00423 
 H                     4.32884   3.21198  -1.24279 
 H                     3.02008   4.40286  -1.33627 
 C                     3.6478    1.90382   0.96782 
 H                     4.19106   1.27253   0.2515 
 H                     4.37665   2.42919   1.60067 
 H                     3.0375    1.23448   1.58887 
 C                     1.1334    4.83516   0.44686 
 H                     0.24571   5.14742   1.01316 
 H                     1.85461   5.66376   0.45709 
 H                     0.82686   4.64956  -0.59105 
 C                     2.15903   3.86504   2.50004 
 H                     3.04442   4.51741   2.50387 
 H                     1.3602    4.37864   3.05151 
 H                     2.39869   2.93945   3.03584 
 C                     3.76664  -0.26411  -2.69845 
 H                     4.3356    0.40144  -2.03649 
 H                     4.44252  -0.63847  -3.47945 
 H                     2.97625   0.33667  -3.16588 
 C                     4.29305  -2.20347  -1.23237 
 H                     4.90125  -2.69953  -2.00248 
 H                     4.94885  -1.53509  -0.65748 
 H                     3.91039  -2.96871  -0.54677 
 C                     2.40014  -2.42975  -4.10334 
 H                     3.34256  -2.97836  -4.24512 
 H                     1.59501  -3.01863  -4.5619 
 H                     2.46526  -1.47574  -4.63753 
 C                     1.80523  -3.55803  -1.95902 
 H                     0.91758  -3.99706  -2.43505 
 H                     2.63179  -4.27413  -2.06278 
 H                     1.57896  -3.41944  -0.89146 
 C                     1.22905  -3.9874    2.5373 
 H                     0.44374  -4.70711   2.27196 
 H                     2.03899  -4.08792   1.80527 
 H                     1.61836  -4.25876   3.52936 
 C                    -0.60172  -2.53701   3.40195 
 H                    -1.35442  -3.2048    2.96185 
 H                    -0.41219  -2.86252   4.43386 
 H                    -1.02273  -1.52136   3.42749 
 C                     1.71538  -1.05711   4.35106 
 H                     2.03277  -1.89959   4.98271 
 H                     2.44011  -0.24252   4.48226 
 H                     0.74227  -0.69818   4.70461 
 C                     3.07523  -1.75299   2.38522 
 H                     3.69202  -0.85127   2.49288 
 H                     3.55214  -2.56496   2.9509 
 H                     3.05511  -2.0109    1.31948 
 H                    -2.63006  -4.21704  -2.51336 
 H                    -0.32782   0.91831  -1.94767 
 C                    -1.79581   1.56466  -1.69013 
 C                    -2.66244   1.05348  -2.66507 
 C                    -1.94907   2.91175  -1.33206 
 C                    -3.66556   1.83706  -3.22945 
 H                    -2.54428   0.02071  -2.99878 
 C                    -2.9559    3.69753  -1.88718 
 H                    -1.28249   3.34862  -0.58563 
 C                    -3.82064   3.16335  -2.838 
 H                    -4.32638   1.41002  -3.98435 
 H                    -3.06205   4.73754  -1.57719 
 H                    -4.60254   3.78022  -3.27959 
 

 GradGradGradGradGradGradGradGradGradGradGradGradGradGradGradGradGradGrad
 Berny optimization.
 Initialization pass.
 Trust Radius=3.00D-01 FncErr=1.00D-07 GrdErr=1.00D-07 EigMax=2.50D+02 EigMin=1.00D-04
 Number of steps in this run=      2 maximum allowed number of steps=      2.
 GradGradGradGradGradGradGradGradGradGradGradGradGradGradGradGradGradGrad

 Stoichiometry    C34H50B3IrN2O6
 Framework group  C1[X(C34H50B3IrN2O6)]
 Deg. of freedom   282
 Full point group                 C1      NOp   1
 Largest Abelian subgroup         C1      NOp   1
 Largest concise Abelian subgroup C1      NOp   1
                         Standard orientation:                         
 ---------------------------------------------------------------------
 Center     Atomic      Atomic             Coordinates (Angstroms)
 Number     Number       Type             X           Y           Z
 ---------------------------------------------------------------------
      1          6           0       -2.997969   -1.541721    0.205251
      2          6           0       -1.900369   -2.389551   -1.648329
      3          6           0       -2.763939   -3.473661   -1.731279
      4          6           0       -3.785109   -3.579301   -0.795699
      5          6           0       -3.903049   -2.605321    0.184261
      6          6           0       -3.039129   -0.482151    1.235941
      7          6           0       -2.022869    1.414409    2.118721
      8          6           0       -2.961829    1.502249    3.137651
      9          6           0       -3.977649    0.556639    3.190681
     10          6           0       -4.015509   -0.444531    2.232361
     11          1           0       -1.068709   -2.253451   -2.341329
     12          1           0       -4.483429   -4.413601   -0.823259
     13          1           0       -4.692449   -2.681731    0.927071
     14          1           0       -1.191750    2.114619    2.026351
     15          1           0       -2.889440    2.300849    3.871491
     16          1           0       -4.734349    0.593889    3.971921
     17          1           0       -4.804589   -1.190731    2.262661
     18          7           0       -2.017829   -1.447931   -0.709119
     19          7           0       -2.065389    0.450519    1.190741
     20         77           0       -0.515819    0.280009   -0.439629
     21          8           0        1.944430    2.084409   -0.679249
     22          8           0        2.388991   -0.790390   -0.831609
     23          8           0        1.161161   -0.353691    2.125951
     24          5           0        1.088031   -0.668231   -1.303919
     25          5           0        0.798411    1.744039    0.027341
     26          5           0        0.444491   -0.863021    1.056381
     27          8           0        0.258551   -2.234921    1.208381
     28          8           0        0.653470    2.597889    1.125141
     29          6           0        1.705240    3.575889    1.083071
     30          6           0        2.764560    2.872640    0.187941
     31          6           0        1.670111   -1.458381    2.890761
     32          6           0        0.656891   -2.584631    2.543201
     33          6           0        3.178301   -1.395130   -1.864149
     34          6           0        2.114431   -2.225081   -2.630359
     35          8           0        0.945201   -1.401651   -2.485629
     36          6           0        3.622400    3.803110   -0.645139
     37          1           0        4.205020    4.480850   -0.004229
     38          1           0        4.328840    3.211980   -1.242789
     39          1           0        3.020080    4.402860   -1.336269
     40          6           0        3.647801    1.903820    0.967821
     41          1           0        4.191061    1.272530    0.251501
     42          1           0        4.376650    2.429190    1.600671
     43          1           0        3.037501    1.234480    1.588871
     44          6           0        1.133400    4.835159    0.446861
     45          1           0        0.245710    5.147419    1.013161
     46          1           0        1.854610    5.663759    0.457091
     47          1           0        0.826860    4.649559   -0.591049
     48          6           0        2.159030    3.865039    2.500041
     49          1           0        3.044420    4.517410    2.503871
     50          1           0        1.360200    4.378639    3.051511
     51          1           0        2.398690    2.939450    3.035841
     52          6           0        3.766641   -0.264110   -2.698449
     53          1           0        4.335601    0.401440   -2.036489
     54          1           0        4.442521   -0.638470   -3.479449
     55          1           0        2.976251    0.336670   -3.165879
     56          6           0        4.293051   -2.203470   -1.232369
     57          1           0        4.901251   -2.699530   -2.002479
     58          1           0        4.948851   -1.535090   -0.657479
     59          1           0        3.910391   -2.968710   -0.546769
     60          6           0        2.400141   -2.429750   -4.103339
     61          1           0        3.342561   -2.978360   -4.245119
     62          1           0        1.595011   -3.018631   -4.561899
     63          1           0        2.465261   -1.475740   -4.637529
     64          6           0        1.805231   -3.558031   -1.959019
     65          1           0        0.917581   -3.997061   -2.435049
     66          1           0        2.631791   -4.274130   -2.062779
     67          1           0        1.578961   -3.419441   -0.891459
     68          6           0        1.229051   -3.987401    2.537301
     69          1           0        0.443741   -4.707111    2.271961
     70          1           0        2.038991   -4.087921    1.805271
     71          1           0        1.618361   -4.258761    3.529361
     72          6           0       -0.601719   -2.537011    3.401951
     73          1           0       -1.354419   -3.204801    2.961851
     74          1           0       -0.412189   -2.862521    4.433861
     75          1           0       -1.022729   -1.521361    3.427491
     76          6           0        1.715381   -1.057111    4.351061
     77          1           0        2.032771   -1.899591    4.982711
     78          1           0        2.440111   -0.242520    4.482261
     79          1           0        0.742271   -0.698181    4.704611
     80          6           0        3.075231   -1.752990    2.385221
     81          1           0        3.692021   -0.851270    2.492881
     82          1           0        3.552141   -2.564960    2.950901
     83          1           0        3.055111   -2.010900    1.319481
     84          1           0       -2.630059   -4.217041   -2.513359
     85          1           0       -0.327819    0.918309   -1.947669
     86          6           0       -1.795809    1.564659   -1.690129
     87          6           0       -2.662439    1.053479   -2.665069
     88          6           0       -1.949070    2.911749   -1.332059
     89          6           0       -3.665559    1.837059   -3.229449
     90          1           0       -2.544279    0.020709   -2.998779
     91          6           0       -2.955900    3.697529   -1.887179
     92          1           0       -1.282490    3.348619   -0.585629
     93          6           0       -3.820640    3.163349   -2.837999
     94          1           0       -4.326379    1.410019   -3.984349
     95          1           0       -3.062050    4.737539   -1.577189
     96          1           0       -4.602540    3.780219   -3.279589
 ---------------------------------------------------------------------
 Rotational constants (GHZ):           0.0784982           0.0726930           0.0655135
 General basis read from cards:  (5D, 7F)
 ======================================================================================================
                                       Pseudopotential Parameters
 ======================================================================================================
  Center     Atomic      Valence      Angular      Power
  Number     Number     Electrons     Momentum     of R      Exponent        Coefficient   SO-Coeffient
 ======================================================================================================
    1          6
                                   No pseudopotential on this center.
    2          6
                                   No pseudopotential on this center.
    3          6
                                   No pseudopotential on this center.
    4          6
                                   No pseudopotential on this center.
    5          6
                                   No pseudopotential on this center.
    6          6
                                   No pseudopotential on this center.
    7          6
                                   No pseudopotential on this center.
    8          6
                                   No pseudopotential on this center.
    9          6
                                   No pseudopotential on this center.
   10          6
                                   No pseudopotential on this center.
   11          1
                                   No pseudopotential on this center.
   12          1
                                   No pseudopotential on this center.
   13          1
                                   No pseudopotential on this center.
   14          1
                                   No pseudopotential on this center.
   15          1
                                   No pseudopotential on this center.
   16          1
                                   No pseudopotential on this center.
   17          1
                                   No pseudopotential on this center.
   18          7
                                   No pseudopotential on this center.
   19          7
                                   No pseudopotential on this center.
   20         77           17
                                      G and up 
                                                     1      823.5880147       -0.15780140    0.00000000
                                                     2      364.6613336    -1517.52704460    0.00000000
                                                     2       55.7082801     -316.53065290    0.00000000
                                                     2       12.0464544      -91.88809410    0.00000000
                                                     2        3.5120610       -9.22417730    0.00000000
                                      S - G
                                                     0      188.0490770        3.15780140    0.00000000
                                                     1      340.4194712       26.83225770    0.00000000
                                                     2      128.2373673      800.42500070    0.00000000
                                                     2       33.8644961      369.40506830    0.00000000
                                                     2        4.7560005      242.41718990    0.00000000
                                                     2        3.9649974     -118.21732820    0.00000000
                                      P - G
                                                     0      289.7291139        2.15780140    0.00000000
                                                     1       87.4633789       61.96786100    0.00000000
                                                     2       30.4363766      269.05819860    0.00000000
                                                     2        4.0553412      231.16547930    0.00000000
                                                     2        3.5525341     -133.69526670    0.00000000
                                      D - G
                                                     0      136.4017106        3.15780140    0.00000000
                                                     1       95.0776925       45.93498030    0.00000000
                                                     2       49.2258410      359.03446680    0.00000000
                                                     2       15.0874145      176.47401190    0.00000000
                                                     2        4.0405764       54.51552860    0.00000000
                                      F - G
                                                     0      127.3507908        3.95461970    0.00000000
                                                     1       66.2364374       52.97736550    0.00000000
                                                     2       34.4299229      274.86433830    0.00000000
                                                     2       10.1995721      137.20473380    0.00000000
                                                     2        2.5409702       14.86333050    0.00000000
   21          8
                                   No pseudopotential on this center.
   22          8
                                   No pseudopotential on this center.
   23          8
                                   No pseudopotential on this center.
   24          5
                                   No pseudopotential on this center.
   25          5
                                   No pseudopotential on this center.
   26          5
                                   No pseudopotential on this center.
   27          8
                                   No pseudopotential on this center.
   28          8
                                   No pseudopotential on this center.
   29          6
                                   No pseudopotential on this center.
   30          6
                                   No pseudopotential on this center.
   31          6
                                   No pseudopotential on this center.
   32          6
                                   No pseudopotential on this center.
   33          6
                                   No pseudopotential on this center.
   34          6
                                   No pseudopotential on this center.
   35          8
                                   No pseudopotential on this center.
   36          6
                                   No pseudopotential on this center.
   37          1
                                   No pseudopotential on this center.
   38          1
                                   No pseudopotential on this center.
   39          1
                                   No pseudopotential on this center.
   40          6
                                   No pseudopotential on this center.
   41          1
                                   No pseudopotential on this center.
   42          1
                                   No pseudopotential on this center.
   43          1
                                   No pseudopotential on this center.
   44          6
                                   No pseudopotential on this center.
   45          1
                                   No pseudopotential on this center.
   46          1
                                   No pseudopotential on this center.
   47          1
                                   No pseudopotential on this center.
   48          6
                                   No pseudopotential on this center.
   49          1
                                   No pseudopotential on this center.
   50          1
                                   No pseudopotential on this center.
   51          1
                                   No pseudopotential on this center.
   52          6
                                   No pseudopotential on this center.
   53          1
                                   No pseudopotential on this center.
   54          1
                                   No pseudopotential on this center.
   55          1
                                   No pseudopotential on this center.
   56          6
                                   No pseudopotential on this center.
   57          1
                                   No pseudopotential on this center.
   58          1
                                   No pseudopotential on this center.
   59          1
                                   No pseudopotential on this center.
   60          6
                                   No pseudopotential on this center.
   61          1
                                   No pseudopotential on this center.
   62          1
                                   No pseudopotential on this center.
   63          1
                                   No pseudopotential on this center.
   64          6
                                   No pseudopotential on this center.
   65          1
                                   No pseudopotential on this center.
   66          1
                                   No pseudopotential on this center.
   67          1
                                   No pseudopotential on this center.
   68          6
                                   No pseudopotential on this center.
   69          1
                                   No pseudopotential on this center.
   70          1
                                   No pseudopotential on this center.
   71          1
                                   No pseudopotential on this center.
   72          6
                                   No pseudopotential on this center.
   73          1
                                   No pseudopotential on this center.
   74          1
                                   No pseudopotential on this center.
   75          1
                                   No pseudopotential on this center.
   76          6
                                   No pseudopotential on this center.
   77          1
                                   No pseudopotential on this center.
   78          1
                                   No pseudopotential on this center.
   79          1
                                   No pseudopotential on this center.
   80          6
                                   No pseudopotential on this center.
   81          1
                                   No pseudopotential on this center.
   82          1
                                   No pseudopotential on this center.
   83          1
                                   No pseudopotential on this center.
   84          1
                                   No pseudopotential on this center.
   85          1
                                   No pseudopotential on this center.
   86          6
                                   No pseudopotential on this center.
   87          6
                                   No pseudopotential on this center.
   88          6
                                   No pseudopotential on this center.
   89          6
                                   No pseudopotential on this center.
   90          1
                                   No pseudopotential on this center.
   91          6
                                   No pseudopotential on this center.
   92          1
                                   No pseudopotential on this center.
   93          6
                                   No pseudopotential on this center.
   94          1
                                   No pseudopotential on this center.
   95          1
                                   No pseudopotential on this center.
   96          1
                                   No pseudopotential on this center.
 ======================================================================================================
 There are   799 symmetry adapted cartesian basis functions of A   symmetry.
 There are   752 symmetry adapted basis functions of A   symmetry.
   752 basis functions,  1503 primitive gaussians,   799 cartesian basis functions
   174 alpha electrons      174 beta electrons
       nuclear repulsion energy      7014.1689498410 Hartrees.
 NAtoms=   96 NActive=   96 NUniq=   96 SFac= 1.00D+00 NAtFMM=   60 NAOKFM=T Big=T
 Integral buffers will be    131072 words long.
 Raffenetti 2 integral format.
 Two-electron integral symmetry is turned on.
 One-electron integrals computed using PRISM.
   1 Symmetry operations used in ECPInt.
 ECPInt:  NShTT=   41616 NPrTT=  254087 LenC2=   33577 LenP2D=  106003.
 LDataN:  DoStor=T MaxTD1= 6 Len=  172
 NBasis=   752 RedAO= T EigKep=  5.06D-04  NBF=   752
 NBsUse=   752 1.00D-06 EigRej= -1.00D+00 NBFU=   752
 Defaulting to unpruned grid for atomic number  77.
 ExpMin= 2.90D-02 ExpMax= 5.48D+03 ExpMxC= 8.25D+02 IAcc=3 IRadAn=         5 AccDes= 0.00D+00
 Harris functional with IExCor= 1009 and IRadAn=       5 diagonalized for initial guess.
 HarFok:  IExCor= 1009 AccDes= 0.00D+00 IRadAn=         5 IDoV= 1 UseB2=F ITyADJ=14
 ICtDFT=  3500011 ScaDFX=  1.000000  1.000000  1.000000  1.000000
 Defaulting to unpruned grid for atomic number  77.
 FoFCou: FMM=F IPFlag=           0 FMFlag=      100000 FMFlg1=        2001
         NFxFlg=           0 DoJE=T BraDBF=F KetDBF=T FulRan=T
         wScrn=  0.000000 ICntrl=       500 IOpCl=  0 I1Cent=   200000004 NGrid=           0
         NMat0=    1 NMatS0=      1 NMatT0=    0 NMatD0=    1 NMtDS0=    0 NMtDT0=    0
 Petite list used in FoFCou.
 Requested convergence on RMS density matrix=1.00D-08 within 128 cycles.
 Requested convergence on MAX density matrix=1.00D-06.
 Requested convergence on             energy=1.00D-06.
 No special actions if energy rises.
 Defaulting to unpruned grid for atomic number  77.
 Defaulting to unpruned grid for atomic number  77.
 Defaulting to unpruned grid for atomic number  77.
 Defaulting to unpruned grid for atomic number  77.
 Defaulting to unpruned grid for atomic number  77.
 Defaulting to unpruned grid for atomic number  77.
 Defaulting to unpruned grid for atomic number  77.
 Defaulting to unpruned grid for atomic number  77.
 Defaulting to unpruned grid for atomic number  77.
 Defaulting to unpruned grid for atomic number  77.
 Defaulting to unpruned grid for atomic number  77.
 Defaulting to unpruned grid for atomic number  77.
 Defaulting to unpruned grid for atomic number  77.
 Defaulting to unpruned grid for atomic number  77.
 Defaulting to unpruned grid for atomic number  77.
 Defaulting to unpruned grid for atomic number  77.
 SCF Done:  E(RM06) =  -2064.80212234     A.U. after   15 cycles
            NFock= 15  Conv=0.46D-08     -V/T= 2.0425
 DoSCS=F DFT=T ScalE2(SS,OS)=  1.000000  1.000000
 Range of M.O.s used for correlation:     1   752
 NBasis=   752 NAE=   174 NBE=   174 NFC=     0 NFV=     0
 NROrb=    752 NOA=   174 NOB=   174 NVA=   578 NVB=   578

 **** Warning!!: The largest alpha MO coefficient is  0.12760184D+02

   1 Symmetry operations used in ECPInt.
 ECPInt:  NShTT=   41616 NPrTT=  254087 LenC2=   33577 LenP2D=  106003.
 LDataN:  DoStor=T MaxTD1= 7 Len=  274
 Number of processors reduced to   9 by ecpmxn.
 Symmetrizing basis deriv contribution to polar:
 IMax=3 JMax=2 DiffMx= 0.00D+00
 G2DrvN: will do    97 centers at a time, making    1 passes.
 Calling FoFCou, ICntrl=  3107 FMM=T I1Cent=   0 AccDes= 0.00D+00.
 Defaulting to unpruned grid for atomic number  77.
 Defaulting to unpruned grid for atomic number  77.
 Defaulting to unpruned grid for atomic number  77.
 Defaulting to unpruned grid for atomic number  77.
 Defaulting to unpruned grid for atomic number  77.
 Defaulting to unpruned grid for atomic number  77.
 Defaulting to unpruned grid for atomic number  77.
 Defaulting to unpruned grid for atomic number  77.
 Defaulting to unpruned grid for atomic number  77.
 Defaulting to unpruned grid for atomic number  77.
 Defaulting to unpruned grid for atomic number  77.
 Defaulting to unpruned grid for atomic number  77.
 Defaulting to unpruned grid for atomic number  77.
 Defaulting to unpruned grid for atomic number  77.
 Defaulting to unpruned grid for atomic number  77.
 Defaulting to unpruned grid for atomic number  77.
 End of G2Drv F.D. properties file   721 does not exist.
 End of G2Drv F.D. properties file   722 does not exist.
 End of G2Drv F.D. properties file   788 does not exist.
          IDoAtm=11111111111111111111111111111111111111111111111111
          IDoAtm=1111111111111111111111111111111111111111111111
          Differentiating once with respect to electric field.
                with respect to dipole field.
          Differentiating once with respect to nuclear coordinates.
 Defaulting to unpruned grid for atomic number  77.
 CalDSu exits because no D1Ps are significant.
 Defaulting to unpruned grid for atomic number  77.
 Defaulting to unpruned grid for atomic number  77.
 Defaulting to unpruned grid for atomic number  77.
 Defaulting to unpruned grid for atomic number  77.
 Defaulting to unpruned grid for atomic number  77.
 Defaulting to unpruned grid for atomic number  77.
 Defaulting to unpruned grid for atomic number  77.
 Defaulting to unpruned grid for atomic number  77.
 Defaulting to unpruned grid for atomic number  77.
 Defaulting to unpruned grid for atomic number  77.
 Defaulting to unpruned grid for atomic number  77.
 Defaulting to unpruned grid for atomic number  77.
 Defaulting to unpruned grid for atomic number  77.
 Defaulting to unpruned grid for atomic number  77.
 Defaulting to unpruned grid for atomic number  77.
 Defaulting to unpruned grid for atomic number  77.
          There are   291 degrees of freedom in the 1st order CPHF.  IDoFFX=6 NUNeed=     3.
    288 vectors produced by pass  0 Test12= 1.01D-13 1.00D-09 XBig12= 4.38D+02 7.41D+00.
 AX will form    72 AO Fock derivatives at one time.
    288 vectors produced by pass  1 Test12= 1.01D-13 1.00D-09 XBig12= 5.72D+01 1.00D+00.
    288 vectors produced by pass  2 Test12= 1.01D-13 1.00D-09 XBig12= 6.93D-01 8.38D-02.
    288 vectors produced by pass  3 Test12= 1.01D-13 1.00D-09 XBig12= 4.71D-03 4.35D-03.
    288 vectors produced by pass  4 Test12= 1.01D-13 1.00D-09 XBig12= 1.39D-05 2.95D-04.
    257 vectors produced by pass  5 Test12= 1.01D-13 1.00D-09 XBig12= 2.44D-08 1.13D-05.
     79 vectors produced by pass  6 Test12= 1.01D-13 1.00D-09 XBig12= 3.52D-11 3.97D-07.
      3 vectors produced by pass  7 Test12= 1.01D-13 1.00D-09 XBig12= 4.86D-14 1.49D-08.
 InvSVY:  IOpt=1 It=  1 EMax= 2.13D-14
 Solved reduced A of dimension  1779 with   291 vectors.
 Isotropic polarizability for W=    0.000000      459.76 Bohr**3.
 End of Minotr F.D. properties file   721 does not exist.
 End of Minotr F.D. properties file   722 does not exist.
 End of Minotr F.D. properties file   788 does not exist.

 **********************************************************************

            Population analysis using the SCF Density.

 **********************************************************************

 Orbital symmetries:
       Occupied  (A) (A) (A) (A) (A) (A) (A) (A) (A) (A) (A) (A)
                 (A) (A) (A) (A) (A) (A) (A) (A) (A) (A) (A) (A)
                 (A) (A) (A) (A) (A) (A) (A) (A) (A) (A) (A) (A)
                 (A) (A) (A) (A) (A) (A) (A) (A) (A) (A) (A) (A)
                 (A) (A) (A) (A) (A) (A) (A) (A) (A) (A) (A) (A)
                 (A) (A) (A) (A) (A) (A) (A) (A) (A) (A) (A) (A)
                 (A) (A) (A) (A) (A) (A) (A) (A) (A) (A) (A) (A)
                 (A) (A) (A) (A) (A) (A) (A) (A) (A) (A) (A) (A)
                 (A) (A) (A) (A) (A) (A) (A) (A) (A) (A) (A) (A)
                 (A) (A) (A) (A) (A) (A) (A) (A) (A) (A) (A) (A)
                 (A) (A) (A) (A) (A) (A) (A) (A) (A) (A) (A) (A)
                 (A) (A) (A) (A) (A) (A) (A) (A) (A) (A) (A) (A)
                 (A) (A) (A) (A) (A) (A) (A) (A) (A) (A) (A) (A)
                 (A) (A) (A) (A) (A) (A) (A) (A) (A) (A) (A) (A)
                 (A) (A) (A) (A) (A) (A)
       Virtual   (A) (A) (A) (A) (A) (A) (A) (A) (A) (A) (A) (A)
                 (A) (A) (A) (A) (A) (A) (A) (A) (A) (A) (A) (A)
                 (A) (A) (A) (A) (A) (A) (A) (A) (A) (A) (A) (A)
                 (A) (A) (A) (A) (A) (A) (A) (A) (A) (A) (A) (A)
                 (A) (A) (A) (A) (A) (A) (A) (A) (A) (A) (A) (A)
                 (A) (A) (A) (A) (A) (A) (A) (A) (A) (A) (A) (A)
                 (A) (A) (A) (A) (A) (A) (A) (A) (A) (A) (A) (A)
                 (A) (A) (A) (A) (A) (A) (A) (A) (A) (A) (A) (A)
                 (A) (A) (A) (A) (A) (A) (A) (A) (A) (A) (A) (A)
                 (A) (A) (A) (A) (A) (A) (A) (A) (A) (A) (A) (A)
                 (A) (A) (A) (A) (A) (A) (A) (A) (A) (A) (A) (A)
                 (A) (A) (A) (A) (A) (A) (A) (A) (A) (A) (A) (A)
                 (A) (A) (A) (A) (A) (A) (A) (A) (A) (A) (A) (A)
                 (A) (A) (A) (A) (A) (A) (A) (A) (A) (A) (A) (A)
                 (A) (A) (A) (A) (A) (A) (A) (A) (A) (A) (A) (A)
                 (A) (A) (A) (A) (A) (A) (A) (A) (A) (A) (A) (A)
                 (A) (A) (A) (A) (A) (A) (A) (A) (A) (A) (A) (A)
                 (A) (A) (A) (A) (A) (A) (A) (A) (A) (A) (A) (A)
                 (A) (A) (A) (A) (A) (A) (A) (A) (A) (A) (A) (A)
                 (A) (A) (A) (A) (A) (A) (A) (A) (A) (A) (A) (A)
                 (A) (A) (A) (A) (A) (A) (A) (A) (A) (A) (A) (A)
                 (A) (A) (A) (A) (A) (A) (A) (A) (A) (A) (A) (A)
                 (A) (A) (A) (A) (A) (A) (A) (A) (A) (A) (A) (A)
                 (A) (A) (A) (A) (A) (A) (A) (A) (A) (A) (A) (A)
                 (A) (A) (A) (A) (A) (A) (A) (A) (A) (A) (A) (A)
                 (A) (A) (A) (A) (A) (A) (A) (A) (A) (A) (A) (A)
                 (A) (A) (A) (A) (A) (A) (A) (A) (A) (A) (A) (A)
                 (A) (A) (A) (A) (A) (A) (A) (A) (A) (A) (A) (A)
                 (A) (A) (A) (A) (A) (A) (A) (A) (A) (A) (A) (A)
                 (A) (A) (A) (A) (A) (A) (A) (A) (A) (A) (A) (A)
                 (A) (A) (A) (A) (A) (A) (A) (A) (A) (A) (A) (A)
                 (A) (A) (A) (A) (A) (A) (A) (A) (A) (A) (A) (A)
                 (A) (A) (A) (A) (A) (A) (A) (A) (A) (A) (A) (A)
                 (A) (A) (A) (A) (A) (A) (A) (A) (A) (A) (A) (A)
                 (A) (A) (A) (A) (A) (A) (A) (A) (A) (A) (A) (A)
                 (A) (A) (A) (A) (A) (A) (A) (A) (A) (A) (A) (A)
                 (A) (A) (A) (A) (A) (A) (A) (A) (A) (A) (A) (A)
                 (A) (A) (A) (A) (A) (A) (A) (A) (A) (A) (A) (A)
                 (A) (A) (A) (A) (A) (A) (A) (A) (A) (A) (A) (A)
                 (A) (A) (A) (A) (A) (A) (A) (A) (A) (A) (A) (A)
                 (A) (A) (A) (A) (A) (A) (A) (A) (A) (A) (A) (A)
                 (A) (A) (A) (A) (A) (A) (A) (A) (A) (A) (A) (A)
                 (A) (A) (A) (A) (A) (A) (A) (A) (A) (A) (A) (A)
                 (A) (A) (A) (A) (A) (A) (A) (A) (A) (A) (A) (A)
                 (A) (A) (A) (A) (A) (A) (A) (A) (A) (A) (A) (A)
                 (A) (A) (A) (A) (A) (A) (A) (A) (A) (A) (A) (A)
                 (A) (A) (A) (A) (A) (A) (A) (A) (A) (A) (A) (A)
                 (A) (A) (A) (A) (A) (A) (A) (A) (A) (A) (A) (A)
                 (A) (A)
 The electronic state is 1-A.
 Alpha  occ. eigenvalues --  -19.20307 -19.20207 -19.20054 -19.19798 -19.19524
 Alpha  occ. eigenvalues --  -19.18637 -14.44865 -14.43755 -10.31916 -10.31598
 Alpha  occ. eigenvalues --  -10.29677 -10.29460 -10.29401 -10.29133 -10.29110
 Alpha  occ. eigenvalues --  -10.28961 -10.28742 -10.28529 -10.28527 -10.28153
 Alpha  occ. eigenvalues --  -10.28062 -10.27915 -10.27431 -10.27309 -10.23248
 Alpha  occ. eigenvalues --  -10.22991 -10.22940 -10.22741 -10.22670 -10.22648
 Alpha  occ. eigenvalues --  -10.22428 -10.22370 -10.22291 -10.22288 -10.22131
 Alpha  occ. eigenvalues --  -10.22005 -10.21849 -10.21833 -10.21818 -10.21740
 Alpha  occ. eigenvalues --  -10.21686 -10.20745  -6.80342  -6.79537  -6.78388
 Alpha  occ. eigenvalues --   -3.62785  -2.05299  -2.05081  -2.03709  -1.06178
 Alpha  occ. eigenvalues --   -1.05973  -1.05134  -0.99560  -0.99115  -0.99025
 Alpha  occ. eigenvalues --   -0.98133  -0.97044  -0.84036  -0.83218  -0.83169
 Alpha  occ. eigenvalues --   -0.82383  -0.80413  -0.80149  -0.79437  -0.76999
 Alpha  occ. eigenvalues --   -0.74865  -0.74649  -0.73880  -0.72419  -0.72161
 Alpha  occ. eigenvalues --   -0.70494  -0.70095  -0.69506  -0.68547  -0.67690
 Alpha  occ. eigenvalues --   -0.67527  -0.67390  -0.66691  -0.64149  -0.63176
 Alpha  occ. eigenvalues --   -0.61791  -0.61219  -0.60552  -0.58040  -0.57685
 Alpha  occ. eigenvalues --   -0.57143  -0.54543  -0.54530  -0.53670  -0.53593
 Alpha  occ. eigenvalues --   -0.53013  -0.52935  -0.52804  -0.52271  -0.50542
 Alpha  occ. eigenvalues --   -0.49868  -0.49375  -0.47547  -0.47008  -0.46728
 Alpha  occ. eigenvalues --   -0.46501  -0.46170  -0.45942  -0.45795  -0.45665
 Alpha  occ. eigenvalues --   -0.45293  -0.44813  -0.44503  -0.44224  -0.43746
 Alpha  occ. eigenvalues --   -0.43611  -0.43520  -0.43433  -0.43322  -0.42756
 Alpha  occ. eigenvalues --   -0.42590  -0.41946  -0.41255  -0.40152  -0.40126
 Alpha  occ. eigenvalues --   -0.39901  -0.39850  -0.39724  -0.39626  -0.39553
 Alpha  occ. eigenvalues --   -0.39492  -0.39239  -0.39114  -0.38986  -0.38901
 Alpha  occ. eigenvalues --   -0.38498  -0.38233  -0.37958  -0.37524  -0.37357
 Alpha  occ. eigenvalues --   -0.36686  -0.36621  -0.36369  -0.36291  -0.35933
 Alpha  occ. eigenvalues --   -0.35713  -0.35578  -0.35551  -0.35069  -0.34814
 Alpha  occ. eigenvalues --   -0.34732  -0.34418  -0.33868  -0.33585  -0.33087
 Alpha  occ. eigenvalues --   -0.32720  -0.32226  -0.31877  -0.31837  -0.31637
 Alpha  occ. eigenvalues --   -0.31427  -0.31268  -0.30839  -0.30633  -0.30238
 Alpha  occ. eigenvalues --   -0.29774  -0.29331  -0.29078  -0.27211  -0.26399
 Alpha  occ. eigenvalues --   -0.26246  -0.25757  -0.25283  -0.24492  -0.23178
 Alpha  occ. eigenvalues --   -0.22358  -0.21843  -0.21534  -0.20298
 Alpha virt. eigenvalues --   -0.06621  -0.03480  -0.02578   0.01697   0.02086
 Alpha virt. eigenvalues --    0.03367   0.04387   0.05411   0.06526   0.06846
 Alpha virt. eigenvalues --    0.07342   0.07854   0.08615   0.09480   0.09845
 Alpha virt. eigenvalues --    0.10301   0.11048   0.11127   0.11706   0.11885
 Alpha virt. eigenvalues --    0.11934   0.12564   0.12916   0.13567   0.13700
 Alpha virt. eigenvalues --    0.13785   0.14180   0.14758   0.15055   0.15193
 Alpha virt. eigenvalues --    0.15464   0.15697   0.15762   0.16032   0.16220
 Alpha virt. eigenvalues --    0.16425   0.16448   0.16517   0.16928   0.17108
 Alpha virt. eigenvalues --    0.17338   0.17497   0.17992   0.18172   0.18460
 Alpha virt. eigenvalues --    0.18617   0.18955   0.19097   0.19373   0.19802
 Alpha virt. eigenvalues --    0.19834   0.19988   0.20273   0.20453   0.20538
 Alpha virt. eigenvalues --    0.20643   0.20885   0.21211   0.21310   0.21512
 Alpha virt. eigenvalues --    0.21733   0.21765   0.22510   0.22758   0.22837
 Alpha virt. eigenvalues --    0.23235   0.23440   0.23790   0.24286   0.24422
 Alpha virt. eigenvalues --    0.24487   0.24640   0.25291   0.25496   0.25655
 Alpha virt. eigenvalues --    0.26079   0.26274   0.26605   0.27270   0.27321
 Alpha virt. eigenvalues --    0.27442   0.27938   0.28247   0.28725   0.29009
 Alpha virt. eigenvalues --    0.29244   0.29790   0.29924   0.30732   0.31227
 Alpha virt. eigenvalues --    0.31384   0.31737   0.32627   0.33338   0.33610
 Alpha virt. eigenvalues --    0.33910   0.34559   0.35168   0.36000   0.36130
 Alpha virt. eigenvalues --    0.36314   0.36698   0.37267   0.37915   0.38632
 Alpha virt. eigenvalues --    0.39766   0.41071   0.41778   0.42616   0.44728
 Alpha virt. eigenvalues --    0.45733   0.46378   0.47180   0.48941   0.49259
 Alpha virt. eigenvalues --    0.49544   0.50262   0.50634   0.50848   0.51370
 Alpha virt. eigenvalues --    0.51957   0.52191   0.52702   0.52775   0.53103
 Alpha virt. eigenvalues --    0.53776   0.54465   0.54656   0.55251   0.55583
 Alpha virt. eigenvalues --    0.55867   0.56591   0.56800   0.57002   0.57330
 Alpha virt. eigenvalues --    0.57716   0.58015   0.58188   0.58347   0.58671
 Alpha virt. eigenvalues --    0.58952   0.59018   0.59183   0.59220   0.59473
 Alpha virt. eigenvalues --    0.59525   0.59789   0.59964   0.60111   0.60470
 Alpha virt. eigenvalues --    0.60626   0.61162   0.61267   0.61631   0.62189
 Alpha virt. eigenvalues --    0.62471   0.62733   0.62963   0.63448   0.63562
 Alpha virt. eigenvalues --    0.63814   0.64091   0.64796   0.65120   0.65220
 Alpha virt. eigenvalues --    0.65481   0.65861   0.66331   0.66672   0.67131
 Alpha virt. eigenvalues --    0.67920   0.68247   0.68444   0.69040   0.69419
 Alpha virt. eigenvalues --    0.69802   0.70229   0.70479   0.70757   0.71074
 Alpha virt. eigenvalues --    0.71437   0.72127   0.72344   0.72817   0.73336
 Alpha virt. eigenvalues --    0.73517   0.73656   0.74008   0.74851   0.74967
 Alpha virt. eigenvalues --    0.75631   0.75728   0.76247   0.76645   0.76969
 Alpha virt. eigenvalues --    0.77203   0.77402   0.78245   0.78384   0.78600
 Alpha virt. eigenvalues --    0.79501   0.79645   0.80014   0.81100   0.81145
 Alpha virt. eigenvalues --    0.81660   0.82121   0.82399   0.83094   0.83422
 Alpha virt. eigenvalues --    0.83712   0.83982   0.84001   0.84177   0.84444
 Alpha virt. eigenvalues --    0.84485   0.84758   0.85388   0.85631   0.85892
 Alpha virt. eigenvalues --    0.85969   0.86393   0.86630   0.86805   0.87187
 Alpha virt. eigenvalues --    0.87427   0.87709   0.88175   0.88652   0.88964
 Alpha virt. eigenvalues --    0.89109   0.89431   0.89761   0.90058   0.90101
 Alpha virt. eigenvalues --    0.90413   0.90555   0.90789   0.91116   0.91350
 Alpha virt. eigenvalues --    0.91913   0.92109   0.92351   0.92485   0.92650
 Alpha virt. eigenvalues --    0.92743   0.93666   0.94113   0.94538   0.94856
 Alpha virt. eigenvalues --    0.95119   0.95365   0.95460   0.95987   0.96287
 Alpha virt. eigenvalues --    0.96537   0.96996   0.97167   0.97397   0.97584
 Alpha virt. eigenvalues --    0.98274   0.98693   0.98878   0.99850   1.00067
 Alpha virt. eigenvalues --    1.00492   1.01392   1.01598   1.02128   1.02402
 Alpha virt. eigenvalues --    1.02953   1.03747   1.04160   1.04305   1.04772
 Alpha virt. eigenvalues --    1.05540   1.05847   1.06176   1.06688   1.07727
 Alpha virt. eigenvalues --    1.08457   1.09318   1.10017   1.10400   1.11279
 Alpha virt. eigenvalues --    1.12215   1.12690   1.13215   1.14564   1.14954
 Alpha virt. eigenvalues --    1.15241   1.15762   1.16168   1.17527   1.17829
 Alpha virt. eigenvalues --    1.18638   1.19151   1.19528   1.20106   1.20570
 Alpha virt. eigenvalues --    1.20999   1.21902   1.22311   1.22410   1.23290
 Alpha virt. eigenvalues --    1.23993   1.25185   1.25312   1.26100   1.26918
 Alpha virt. eigenvalues --    1.27404   1.28318   1.29352   1.29796   1.30190
 Alpha virt. eigenvalues --    1.30942   1.32510   1.33047   1.33290   1.34786
 Alpha virt. eigenvalues --    1.35541   1.36487   1.36720   1.37493   1.39218
 Alpha virt. eigenvalues --    1.39673   1.40110   1.40480   1.41269   1.41418
 Alpha virt. eigenvalues --    1.42037   1.42764   1.43724   1.44857   1.45098
 Alpha virt. eigenvalues --    1.45343   1.45741   1.45959   1.46715   1.47168
 Alpha virt. eigenvalues --    1.47285   1.47626   1.48082   1.48477   1.49506
 Alpha virt. eigenvalues --    1.49796   1.51221   1.51345   1.51852   1.52575
 Alpha virt. eigenvalues --    1.53307   1.53591   1.54198   1.54445   1.55815
 Alpha virt. eigenvalues --    1.56885   1.57320   1.58025   1.58978   1.59890
 Alpha virt. eigenvalues --    1.61631   1.61997   1.63208   1.64381   1.65427
 Alpha virt. eigenvalues --    1.65901   1.66041   1.66493   1.66783   1.67644
 Alpha virt. eigenvalues --    1.68439   1.69016   1.70150   1.71121   1.71700
 Alpha virt. eigenvalues --    1.72813   1.73260   1.74968   1.76075   1.76830
 Alpha virt. eigenvalues --    1.77827   1.78140   1.78737   1.79040   1.79128
 Alpha virt. eigenvalues --    1.80416   1.80625   1.81372   1.81409   1.82175
 Alpha virt. eigenvalues --    1.82436   1.83233   1.83502   1.84083   1.84877
 Alpha virt. eigenvalues --    1.85585   1.85910   1.86458   1.86900   1.87195
 Alpha virt. eigenvalues --    1.87947   1.88633   1.89262   1.89565   1.89767
 Alpha virt. eigenvalues --    1.90524   1.90699   1.91648   1.91902   1.92262
 Alpha virt. eigenvalues --    1.92360   1.92736   1.92869   1.93301   1.93508
 Alpha virt. eigenvalues --    1.94043   1.94144   1.94330   1.94614   1.95579
 Alpha virt. eigenvalues --    1.96641   1.96787   1.97216   1.98180   1.98659
 Alpha virt. eigenvalues --    1.98956   2.00292   2.00592   2.01860   2.02776
 Alpha virt. eigenvalues --    2.03245   2.03880   2.04332   2.05307   2.05924
 Alpha virt. eigenvalues --    2.06542   2.06683   2.07147   2.07805   2.08045
 Alpha virt. eigenvalues --    2.08543   2.08680   2.09415   2.10179   2.10838
 Alpha virt. eigenvalues --    2.11193   2.11334   2.11843   2.12363   2.13078
 Alpha virt. eigenvalues --    2.13419   2.13803   2.14243   2.14296   2.15060
 Alpha virt. eigenvalues --    2.15348   2.15848   2.16085   2.16735   2.17028
 Alpha virt. eigenvalues --    2.17432   2.17958   2.18159   2.18373   2.18570
 Alpha virt. eigenvalues --    2.18949   2.19078   2.19641   2.19921   2.20445
 Alpha virt. eigenvalues --    2.20978   2.21390   2.22026   2.22301   2.22580
 Alpha virt. eigenvalues --    2.22918   2.23755   2.24086   2.24549   2.25281
 Alpha virt. eigenvalues --    2.25923   2.26246   2.26423   2.27048   2.27732
 Alpha virt. eigenvalues --    2.28182   2.28667   2.29217   2.29383   2.31683
 Alpha virt. eigenvalues --    2.31872   2.32113   2.32187   2.32401   2.33308
 Alpha virt. eigenvalues --    2.33777   2.34057   2.34665   2.35431   2.35914
 Alpha virt. eigenvalues --    2.36796   2.37979   2.38723   2.39210   2.39933
 Alpha virt. eigenvalues --    2.41214   2.41360   2.44010   2.46012   2.47503
 Alpha virt. eigenvalues --    2.47984   2.48159   2.48643   2.49342   2.50010
 Alpha virt. eigenvalues --    2.50171   2.51252   2.53088   2.53739   2.55891
 Alpha virt. eigenvalues --    2.56942   2.57812   2.59361   2.60225   2.60274
 Alpha virt. eigenvalues --    2.60648   2.61332   2.62103   2.63600   2.64460
 Alpha virt. eigenvalues --    2.65650   2.65786   2.66241   2.68103   2.68518
 Alpha virt. eigenvalues --    2.69218   2.69646   2.71732   2.71958   2.76833
 Alpha virt. eigenvalues --    2.78322   2.78556   2.78743   2.79015   2.79429
 Alpha virt. eigenvalues --    2.79742   2.80414   2.80566   2.80815   2.80959
 Alpha virt. eigenvalues --    2.81592   2.82175   2.82627   2.83849   2.84506
 Alpha virt. eigenvalues --    2.86375   2.87953   2.88608   2.91164   2.91974
 Alpha virt. eigenvalues --    2.94047   2.95289   2.95583   2.97012   2.98577
 Alpha virt. eigenvalues --    2.99620   3.03925   3.05678   3.07706   3.08630
 Alpha virt. eigenvalues --    3.11788   3.12463   3.13806   3.25624   3.30799
 Alpha virt. eigenvalues --    3.36537   3.44790  14.47928
          Condensed to atoms (all electrons):
 Mulliken charges:
               1
     1  C    0.306998
     2  C    0.041886
     3  C   -0.171300
     4  C   -0.138642
     5  C   -0.186337
     6  C    0.300976
     7  C    0.051509
     8  C   -0.175893
     9  C   -0.137516
    10  C   -0.184530
    11  H    0.219496
    12  H    0.179120
    13  H    0.167649
    14  H    0.241177
    15  H    0.183113
    16  H    0.181180
    17  H    0.169135
    18  N   -0.454843
    19  N   -0.498935
    20  Ir  -0.232524
    21  O   -0.507162
    22  O   -0.525203
    23  O   -0.501511
    24  B    0.506777
    25  B    0.512785
    26  B    0.510921
    27  O   -0.520336
    28  O   -0.546528
    29  C    0.305280
    30  C    0.288123
    31  C    0.289982
    32  C    0.297276
    33  C    0.293531
    34  C    0.300804
    35  O   -0.525047
    36  C   -0.512020
    37  H    0.145362
    38  H    0.165683
    39  H    0.171296
    40  C   -0.496583
    41  H    0.155149
    42  H    0.136530
    43  H    0.184936
    44  C   -0.510742
    45  H    0.159285
    46  H    0.150934
    47  H    0.178614
    48  C   -0.507919
    49  H    0.148064
    50  H    0.158334
    51  H    0.174625
    52  C   -0.502506
    53  H    0.164344
    54  H    0.144615
    55  H    0.189160
    56  C   -0.505241
    57  H    0.152081
    58  H    0.166465
    59  H    0.159970
    60  C   -0.513671
    61  H    0.150331
    62  H    0.163229
    63  H    0.178588
    64  C   -0.510457
    65  H    0.150997
    66  H    0.149660
    67  H    0.185810
    68  C   -0.507329
    69  H    0.166940
    70  H    0.166389
    71  H    0.150445
    72  C   -0.499062
    73  H    0.160285
    74  H    0.152053
    75  H    0.157872
    76  C   -0.508217
    77  H    0.147974
    78  H    0.167631
    79  H    0.166462
    80  C   -0.497018
    81  H    0.164083
    82  H    0.143742
    83  H    0.174542
    84  H    0.179296
    85  H    0.260668
    86  C   -0.113447
    87  C   -0.162162
    88  C   -0.169256
    89  C   -0.140349
    90  H    0.135327
    91  C   -0.145350
    92  H    0.133878
    93  C   -0.170032
    94  H    0.137887
    95  H    0.139172
    96  H    0.141241
 Sum of Mulliken charges =  -0.00000
 Mulliken charges with hydrogens summed into heavy atoms:
               1
     1  C    0.306998
     2  C    0.261382
     3  C    0.007996
     4  C    0.040478
     5  C   -0.018688
     6  C    0.300976
     7  C    0.292686
     8  C    0.007220
     9  C    0.043664
    10  C   -0.015395
    18  N   -0.454843
    19  N   -0.498935
    20  Ir  -0.232524
    21  O   -0.507162
    22  O   -0.525203
    23  O   -0.501511
    24  B    0.506777
    25  B    0.512785
    26  B    0.510921
    27  O   -0.520336
    28  O   -0.546528
    29  C    0.305280
    30  C    0.288123
    31  C    0.289982
    32  C    0.297276
    33  C    0.293531
    34  C    0.300804
    35  O   -0.525047
    36  C   -0.029680
    40  C   -0.019968
    44  C   -0.021908
    48  C   -0.026897
    52  C   -0.004387
    56  C   -0.026724
    60  C   -0.021523
    64  C   -0.023990
    68  C   -0.023555
    72  C   -0.028853
    76  C   -0.026150
    80  C   -0.014651
    86  C    0.147221
    87  C   -0.026834
    88  C   -0.035377
    89  C   -0.002463
    91  C   -0.006178
    93  C   -0.028791
 APT charges:
               1
     1  C    0.187488
     2  C    0.055099
     3  C   -0.064768
     4  C    0.117168
     5  C   -0.164829
     6  C    0.194348
     7  C    0.044099
     8  C   -0.073557
     9  C    0.119942
    10  C   -0.177960
    11  H    0.122097
    12  H    0.026166
    13  H    0.037399
    14  H    0.151733
    15  H    0.037970
    16  H    0.028697
    17  H    0.038546
    18  N   -0.228479
    19  N   -0.144857
    20  Ir  -1.096171
    21  O   -0.949975
    22  O   -0.998627
    23  O   -0.928004
    24  B    1.344363
    25  B    1.263296
    26  B    1.219107
    27  O   -0.926842
    28  O   -1.018466
    29  C    0.518826
    30  C    0.472761
    31  C    0.462386
    32  C    0.443557
    33  C    0.493242
    34  C    0.494860
    35  O   -0.991494
    36  C    0.004419
    37  H   -0.021646
    38  H   -0.007531
    39  H   -0.002459
    40  C   -0.027017
    41  H   -0.005269
    42  H   -0.033232
    43  H    0.026669
    44  C   -0.039123
    45  H   -0.001022
    46  H   -0.025818
    47  H    0.012050
    48  C   -0.012562
    49  H   -0.019578
    50  H   -0.008352
    51  H    0.005300
    52  C   -0.024791
    53  H   -0.006463
    54  H   -0.030331
    55  H    0.019500
    56  C   -0.008061
    57  H   -0.020337
    58  H    0.002798
    59  H   -0.001597
    60  C   -0.007123
    61  H   -0.017061
    62  H   -0.005702
    63  H    0.005744
    64  C   -0.036369
    65  H   -0.006949
    66  H   -0.020459
    67  H    0.019543
    68  C   -0.000907
    69  H   -0.002959
    70  H    0.000565
    71  H   -0.017914
    72  C   -0.029656
    73  H   -0.005857
    74  H   -0.019208
    75  H   -0.003652
    76  C   -0.004144
    77  H   -0.017167
    78  H    0.002538
    79  H   -0.002071
    80  C   -0.030906
    81  H    0.004487
    82  H   -0.030193
    83  H    0.026031
    84  H    0.034641
    85  H    0.323352
    86  C    0.235765
    87  C   -0.141192
    88  C   -0.128929
    89  C    0.025047
    90  H    0.024702
    91  C    0.011849
    92  H    0.038397
    93  C   -0.068705
    94  H   -0.018035
    95  H   -0.014477
    96  H   -0.007693
 Sum of APT charges =  -0.00000
 APT charges with hydrogens summed into heavy atoms:
               1
     1  C    0.187488
     2  C    0.177196
     3  C   -0.030128
     4  C    0.143334
     5  C   -0.127430
     6  C    0.194348
     7  C    0.195832
     8  C   -0.035587
     9  C    0.148639
    10  C   -0.139414
    18  N   -0.228479
    19  N   -0.144857
    20  Ir  -1.096171
    21  O   -0.949975
    22  O   -0.998627
    23  O   -0.928004
    24  B    1.344363
    25  B    1.263296
    26  B    1.219107
    27  O   -0.926842
    28  O   -1.018466
    29  C    0.518826
    30  C    0.472761
    31  C    0.462386
    32  C    0.443557
    33  C    0.493242
    34  C    0.494860
    35  O   -0.991494
    36  C   -0.027217
    40  C   -0.038849
    44  C   -0.053912
    48  C   -0.035192
    52  C   -0.042085
    56  C   -0.027197
    60  C   -0.024142
    64  C   -0.044234
    68  C   -0.021216
    72  C   -0.058372
    76  C   -0.020844
    80  C   -0.030581
    86  C    0.559117
    87  C   -0.116490
    88  C   -0.090532
    89  C    0.007012
    91  C   -0.002627
    93  C   -0.076399
 Electronic spatial extent (au):  <R**2>=          21638.6788
 Charge=             -0.0000 electrons
 Dipole moment (field-independent basis, Debye):
    X=             -3.5540    Y=             -4.0757    Z=              3.7160  Tot=              6.5614
 Quadrupole moment (field-independent basis, Debye-Ang):
   XX=           -261.6736   YY=           -270.8149   ZZ=           -277.0494
   XY=             10.6672   XZ=            -12.0391   YZ=             11.2306
 Traceless Quadrupole moment (field-independent basis, Debye-Ang):
   XX=              8.1724   YY=             -0.9689   ZZ=             -7.2034
   XY=             10.6672   XZ=            -12.0391   YZ=             11.2306
 Octapole moment (field-independent basis, Debye-Ang**2):
  XXX=           -105.0501  YYY=              6.3480  ZZZ=              4.9534  XYY=            -42.8644
  XXY=            -48.8044  XXZ=             23.5686  XZZ=            -45.1764  YZZ=            -18.6216
  YYZ=            -13.9129  XYZ=            -11.2445
 Hexadecapole moment (field-independent basis, Debye-Ang**3):
 XXXX=         -10930.2363 YYYY=          -9818.4721 ZZZZ=          -7900.3571 XXXY=            234.2670
 XXXZ=           -242.2054 YYYX=            182.2637 YYYZ=            152.3754 ZZZX=           -123.0464
 ZZZY=            107.0972 XXYY=          -3282.9578 XXZZ=          -2948.0622 YYZZ=          -2923.6624
 XXYZ=             63.8240 YYXZ=             59.5572 ZZXY=            -74.4376
 N-N= 7.014168949841D+03 E-N=-1.881016880796D+04  KE= 1.980557604921D+03
  Exact polarizability:     467.674       9.542     475.371      -0.431      27.442     436.227
 Approx polarizability:     656.283      29.654     700.682      -8.732      76.866     657.164
   1 Symmetry operations used in ECPInt.
 ECPInt:  NShTT=   41616 NPrTT=  254087 LenC2=   33577 LenP2D=  106003.
 LDataN:  DoStor=T MaxTD1= 8 Len=  415
 Calling FoFJK, ICntrl=    100127 FMM=F ISym2X=0 I1Cent= 0 IOpClX= 0 NMat=1 NMatS=1 NMatT=0.
 Defaulting to unpruned grid for atomic number  77.
 Defaulting to unpruned grid for atomic number  77.
 Defaulting to unpruned grid for atomic number  77.
 Defaulting to unpruned grid for atomic number  77.
 Defaulting to unpruned grid for atomic number  77.
 Defaulting to unpruned grid for atomic number  77.
 Defaulting to unpruned grid for atomic number  77.
 Defaulting to unpruned grid for atomic number  77.
 Defaulting to unpruned grid for atomic number  77.
 Defaulting to unpruned grid for atomic number  77.
 Defaulting to unpruned grid for atomic number  77.
 Defaulting to unpruned grid for atomic number  77.
 Defaulting to unpruned grid for atomic number  77.
 Defaulting to unpruned grid for atomic number  77.
 Defaulting to unpruned grid for atomic number  77.
 Defaulting to unpruned grid for atomic number  77.
 Full mass-weighted force constant matrix:
 Low frequencies --- -721.9613  -11.9778   -7.7965   -0.0004   -0.0003    0.0004
 Low frequencies ---    4.3847   20.5382   24.7292
 ******    1 imaginary frequencies (negative Signs) ****** 
 Diagonal vibrational polarizability:
       87.7442614      77.0455087      62.0484282
 Harmonic frequencies (cm**-1), IR intensities (KM/Mole), Raman scattering
 activities (A**4/AMU), depolarization ratios for plane and unpolarized
 incident light, reduced masses (AMU), force constants (mDyne/A),
 and normal coordinates:
                      1                      2                      3
                      A                      A                      A
 Frequencies --   -721.9613                20.4715                24.5965
 Red. masses --      1.1509                 3.5098                 4.8975
 Frc consts  --      0.3534                 0.0009                 0.0017
 IR Inten    --    653.4609                 0.1214                 0.3879
  Atom AN      X      Y      Z        X      Y      Z        X      Y      Z
     1   6     0.00  -0.00  -0.00    -0.00  -0.00  -0.00     0.05  -0.04   0.03
     2   6    -0.00   0.00  -0.00     0.01  -0.02   0.01     0.05  -0.04   0.03
     3   6     0.00   0.00   0.00     0.03  -0.03   0.03     0.14  -0.12   0.12
     4   6    -0.00   0.00   0.00     0.03  -0.03   0.03     0.19  -0.17   0.17
     5   6    -0.00  -0.00  -0.00     0.01  -0.02   0.01     0.14  -0.13   0.13
     6   6     0.00  -0.00  -0.00    -0.02   0.01  -0.02    -0.00   0.00  -0.01
     7   6     0.01  -0.00  -0.00    -0.02   0.01  -0.02    -0.05   0.04  -0.06
     8   6     0.00   0.00  -0.01    -0.05   0.04  -0.04    -0.07   0.07  -0.08
     9   6     0.00  -0.00  -0.00    -0.06   0.05  -0.06    -0.07   0.07  -0.08
    10   6     0.00   0.00  -0.00    -0.05   0.04  -0.05    -0.03   0.03  -0.05
    11   1    -0.01   0.00  -0.01     0.01  -0.02   0.01     0.01  -0.01  -0.00
    12   1    -0.00   0.00  -0.00     0.04  -0.04   0.04     0.27  -0.23   0.25
    13   1    -0.00   0.00  -0.00     0.02  -0.02   0.02     0.19  -0.17   0.17
    14   1     0.01  -0.00   0.00    -0.01  -0.00  -0.00    -0.05   0.05  -0.06
    15   1     0.00   0.00  -0.01    -0.06   0.05  -0.05    -0.10   0.09  -0.11
    16   1     0.00  -0.00  -0.00    -0.09   0.07  -0.09    -0.10   0.09  -0.11
    17   1     0.00   0.00  -0.01    -0.06   0.05  -0.07    -0.04   0.03  -0.05
    18   7    -0.00  -0.00  -0.00     0.00  -0.01  -0.00     0.01  -0.01  -0.00
    19   7     0.02  -0.01   0.00    -0.01  -0.00  -0.01    -0.01   0.01  -0.02
    20  77    -0.01   0.01  -0.01     0.00  -0.01   0.01    -0.01   0.01  -0.02
    21   8    -0.00  -0.00  -0.00    -0.01   0.01   0.01     0.01  -0.02   0.00
    22   8     0.00   0.00   0.00     0.01   0.01  -0.01    -0.01  -0.01  -0.00
    23   8     0.00  -0.00   0.00     0.08  -0.03  -0.05    -0.04   0.00  -0.00
    24   5     0.01  -0.03   0.02     0.00  -0.00   0.00    -0.01   0.01  -0.02
    25   5    -0.01   0.01   0.00     0.00  -0.01   0.02     0.00  -0.00  -0.01
    26   5     0.01  -0.01   0.00     0.00  -0.02  -0.00    -0.02   0.00  -0.02
    27   8     0.00  -0.00   0.00    -0.07  -0.00   0.04    -0.01  -0.00  -0.02
    28   8    -0.00  -0.00   0.00     0.00  -0.03   0.03     0.00  -0.00  -0.01
    29   6    -0.00   0.00  -0.00    -0.01  -0.01   0.03     0.02  -0.02   0.01
    30   6    -0.00  -0.00   0.00    -0.01   0.02   0.01     0.02  -0.03   0.01
    31   6     0.00  -0.00   0.00     0.05  -0.04  -0.05    -0.04   0.00  -0.00
    32   6     0.00  -0.00   0.00    -0.05   0.02   0.04    -0.01  -0.01  -0.02
    33   6     0.00   0.00  -0.00     0.01   0.03  -0.02    -0.01  -0.01  -0.00
    34   6     0.00  -0.00   0.00     0.01   0.01  -0.01    -0.01   0.01  -0.03
    35   8    -0.00   0.00   0.01    -0.00  -0.00   0.00    -0.00   0.02  -0.03
    36   6    -0.00  -0.00  -0.00    -0.04   0.04   0.01     0.04  -0.04   0.02
    37   1    -0.00  -0.00   0.00    -0.04   0.04   0.01     0.04  -0.04   0.03
    38   1     0.00   0.00   0.00    -0.03   0.05  -0.01     0.03  -0.04   0.03
    39   1    -0.00  -0.00   0.00    -0.05   0.03   0.02     0.05  -0.03   0.02
    40   6    -0.00  -0.00  -0.00     0.02   0.02  -0.01    -0.00  -0.04   0.02
    41   1     0.00   0.00   0.00     0.02   0.04  -0.02    -0.01  -0.05   0.02
    42   1    -0.00   0.00  -0.00     0.01   0.03  -0.01     0.00  -0.05   0.02
    43   1     0.00  -0.00   0.00     0.03   0.01  -0.01    -0.02  -0.04   0.01
    44   6    -0.00  -0.00  -0.00    -0.04  -0.01   0.05     0.04  -0.01   0.01
    45   1     0.00  -0.00  -0.00    -0.04  -0.03   0.07     0.04   0.00   0.00
    46   1     0.00  -0.00   0.00    -0.05  -0.00   0.06     0.06  -0.02   0.02
    47   1    -0.00  -0.00   0.00    -0.05  -0.00   0.05     0.05   0.01   0.00
    48   6    -0.00  -0.00  -0.00     0.00  -0.02   0.03     0.01  -0.03   0.01
    49   1    -0.00  -0.00  -0.00    -0.01  -0.00   0.03     0.02  -0.05   0.03
    50   1    -0.00   0.00  -0.00     0.00  -0.04   0.05     0.01  -0.03   0.01
    51   1     0.00   0.00   0.00     0.02  -0.02   0.02    -0.01  -0.04   0.01
    52   6    -0.00   0.00  -0.00    -0.03   0.05  -0.03     0.02  -0.01   0.02
    53   1     0.00   0.00  -0.00    -0.03   0.05  -0.04     0.02  -0.03   0.03
    54   1    -0.00   0.00  -0.00    -0.04   0.06  -0.05     0.02  -0.01   0.02
    55   1     0.00   0.00  -0.00    -0.06   0.04  -0.01     0.03   0.01   0.02
    56   6     0.00   0.00   0.00     0.04   0.06  -0.05    -0.03  -0.04   0.00
    57   1    -0.00   0.00  -0.00     0.05   0.09  -0.06    -0.03  -0.04   0.01
    58   1     0.00  -0.00  -0.00     0.02   0.07  -0.04    -0.02  -0.05   0.02
    59   1    -0.00   0.00  -0.00     0.07   0.03  -0.06    -0.05  -0.03  -0.00
    60   6    -0.00   0.00   0.00    -0.01   0.01  -0.01     0.01   0.03  -0.03
    61   1    -0.00   0.00   0.00    -0.00   0.02  -0.02     0.00   0.02  -0.02
    62   1    -0.00   0.00   0.00    -0.00  -0.01   0.00     0.00   0.05  -0.04
    63   1    -0.00   0.00  -0.00    -0.03   0.01  -0.01     0.02   0.04  -0.01
    64   6    -0.00  -0.00   0.00     0.04   0.01   0.00    -0.03   0.01  -0.05
    65   1     0.00   0.00   0.00     0.04  -0.00   0.02    -0.03   0.02  -0.07
    66   1     0.00   0.00  -0.00     0.04   0.02  -0.00    -0.04  -0.00  -0.05
    67   1     0.00  -0.00   0.00     0.05   0.01   0.01    -0.05  -0.01  -0.05
    68   6     0.00  -0.00   0.00    -0.15  -0.02   0.08     0.01   0.00  -0.03
    69   1     0.00  -0.00   0.00    -0.22   0.02   0.15     0.02  -0.01  -0.05
    70   1     0.00  -0.00   0.00    -0.19  -0.12   0.05     0.02   0.03  -0.03
    71   1     0.00  -0.00   0.00    -0.13  -0.01   0.08     0.00  -0.00  -0.03
    72   6    -0.00  -0.00   0.00    -0.01   0.15   0.09    -0.02  -0.04  -0.03
    73   1    -0.00   0.00   0.00    -0.07   0.18   0.15    -0.00  -0.06  -0.03
    74   1    -0.00  -0.00   0.00     0.01   0.18   0.10    -0.02  -0.03  -0.03
    75   1     0.00  -0.00   0.00     0.07   0.18   0.07    -0.05  -0.05  -0.03
    76   6     0.00  -0.00   0.00     0.16  -0.00  -0.06    -0.06  -0.00   0.00
    77   1     0.00   0.00   0.00     0.14  -0.01  -0.05    -0.06  -0.00   0.00
    78   1     0.00   0.00   0.00     0.23  -0.05  -0.12    -0.08   0.00   0.02
    79   1     0.00  -0.00   0.00     0.21   0.08  -0.02    -0.07  -0.02  -0.01
    80   6     0.00  -0.00   0.00    -0.00  -0.16  -0.12    -0.02   0.03   0.02
    81   1    -0.00   0.00   0.00     0.06  -0.19  -0.23    -0.04   0.03   0.05
    82   1     0.00   0.00   0.00    -0.01  -0.15  -0.09    -0.02   0.02   0.01
    83   1     0.00  -0.00   0.00    -0.09  -0.24  -0.10    -0.00   0.05   0.01
    84   1    -0.00   0.00  -0.00     0.04  -0.04   0.04     0.17  -0.15   0.15
    85   1     0.81  -0.57   0.02     0.01   0.01   0.01    -0.02   0.00  -0.02
    86   6    -0.04  -0.01   0.07     0.01  -0.00   0.00    -0.01   0.04   0.01
    87   6     0.01   0.00   0.02     0.02  -0.00  -0.01    -0.07   0.04   0.06
    88   6    -0.01  -0.00   0.01     0.01  -0.00   0.00     0.06   0.05  -0.01
    89   6     0.01   0.00  -0.00     0.02  -0.00  -0.01    -0.07   0.07   0.10
    90   1    -0.03  -0.01   0.04     0.02  -0.00  -0.01    -0.12   0.03   0.08
    91   6     0.00   0.01  -0.01     0.01  -0.00  -0.01     0.06   0.07   0.02
    92   1    -0.04   0.00   0.04    -0.00  -0.00   0.01     0.10   0.04  -0.05
    93   6     0.00   0.00  -0.00     0.02  -0.00  -0.01    -0.01   0.08   0.08
    94   1     0.02   0.00  -0.01     0.03  -0.00  -0.02    -0.12   0.07   0.14
    95   1     0.00   0.01  -0.02     0.01  -0.00  -0.01     0.11   0.08   0.01
    96   1    -0.01  -0.00   0.00     0.02  -0.00  -0.02    -0.01   0.10   0.10
                      4                      5                      6
                      A                      A                      A
 Frequencies --     27.3616                34.0256                37.2419
 Red. masses --      5.1214                 5.0228                 3.6858
 Frc consts  --      0.0023                 0.0034                 0.0030
 IR Inten    --      0.2620                 0.4575                 0.0097
  Atom AN      X      Y      Z        X      Y      Z        X      Y      Z
     1   6    -0.01  -0.00  -0.06    -0.04   0.07  -0.01    -0.01   0.00  -0.00
     2   6     0.01   0.01  -0.05     0.02  -0.04   0.07    -0.02  -0.02   0.00
     3   6    -0.01   0.03  -0.09    -0.02  -0.01   0.07    -0.02  -0.01   0.01
     4   6    -0.03   0.03  -0.11    -0.07   0.07   0.02    -0.03   0.00   0.01
     5   6    -0.03   0.02  -0.10    -0.08   0.10  -0.02    -0.02   0.01   0.00
     6   6    -0.01  -0.02  -0.05    -0.04   0.09  -0.03    -0.01   0.01  -0.01
     7   6     0.01  -0.04  -0.01     0.02   0.05  -0.01    -0.01   0.01  -0.02
     8   6    -0.01  -0.03  -0.03    -0.02   0.11  -0.06    -0.01   0.02  -0.02
     9   6    -0.03  -0.02  -0.05    -0.08   0.17  -0.09    -0.02   0.02  -0.02
    10   6    -0.02  -0.01  -0.06    -0.08   0.16  -0.08    -0.02   0.02  -0.01
    11   1     0.03   0.00  -0.04     0.06  -0.09   0.11    -0.01  -0.03   0.01
    12   1    -0.05   0.05  -0.15    -0.10   0.10   0.01    -0.03   0.01   0.01
    13   1    -0.05   0.02  -0.12    -0.12   0.16  -0.05    -0.02   0.02   0.00
    14   1     0.01  -0.05   0.01     0.05   0.01   0.01    -0.01   0.01  -0.02
    15   1    -0.01  -0.04  -0.02    -0.01   0.12  -0.06    -0.01   0.02  -0.02
    16   1    -0.04  -0.02  -0.07    -0.11   0.22  -0.13    -0.02   0.03  -0.02
    17   1    -0.03  -0.00  -0.08    -0.13   0.20  -0.11    -0.02   0.02  -0.01
    18   7     0.01  -0.01  -0.04     0.01  -0.00   0.04    -0.01  -0.01  -0.00
    19   7     0.01  -0.03  -0.02     0.01   0.04  -0.00    -0.01   0.01  -0.01
    20  77     0.01  -0.01  -0.02     0.02  -0.00   0.01    -0.01  -0.00  -0.01
    21   8     0.01  -0.01  -0.03     0.02   0.00  -0.00    -0.04   0.05  -0.02
    22   8     0.02  -0.00   0.02     0.02   0.02  -0.01     0.02   0.06  -0.03
    23   8     0.02   0.01  -0.03    -0.01  -0.02   0.02    -0.02   0.01   0.00
    24   5     0.02  -0.01   0.00     0.02   0.00   0.00    -0.00  -0.01   0.00
    25   5     0.01  -0.01  -0.03     0.02  -0.00  -0.00    -0.01  -0.00   0.00
    26   5     0.01  -0.00  -0.01     0.02  -0.01  -0.00     0.00   0.00  -0.01
    27   8    -0.01   0.00   0.02     0.04  -0.02  -0.04     0.04  -0.01  -0.03
    28   8    -0.00   0.01  -0.04     0.02  -0.01   0.01     0.00  -0.04   0.04
    29   6    -0.00   0.01  -0.05     0.03  -0.02   0.02    -0.01  -0.03   0.06
    30   6     0.00   0.01  -0.03     0.03  -0.02   0.01    -0.02   0.02  -0.00
    31   6     0.00   0.02   0.00    -0.01  -0.04   0.01     0.01   0.01  -0.01
    32   6    -0.02   0.03   0.03     0.01  -0.04  -0.04     0.04  -0.01  -0.03
    33   6     0.03  -0.02   0.04     0.03   0.04  -0.02     0.00   0.02  -0.03
    34   6     0.04  -0.04   0.05     0.04   0.03  -0.01     0.00  -0.06   0.06
    35   8     0.04  -0.04   0.01     0.02  -0.00   0.00    -0.02  -0.09   0.05
    36   6     0.00  -0.00  -0.04     0.04  -0.01   0.03    -0.05   0.06   0.01
    37   1    -0.00   0.01  -0.05     0.03  -0.02   0.04    -0.05   0.04   0.02
    38   1     0.00  -0.00  -0.03     0.04  -0.01   0.02    -0.06   0.09  -0.03
    39   1     0.00  -0.01  -0.05     0.04  -0.00   0.03    -0.08   0.08   0.05
    40   6     0.01   0.02  -0.02     0.01  -0.03   0.00     0.01  -0.01  -0.07
    41   1     0.02   0.02  -0.01     0.00  -0.04  -0.00    -0.03   0.01  -0.10
    42   1    -0.00   0.03  -0.02     0.02  -0.05   0.00     0.03  -0.02  -0.08
    43   1     0.01   0.02  -0.01     0.01  -0.03   0.00     0.03  -0.02  -0.06
    44   6    -0.00   0.00  -0.06     0.04  -0.01   0.03    -0.03  -0.01   0.13
    45   1    -0.01   0.01  -0.07     0.04  -0.01   0.03    -0.02  -0.04   0.16
    46   1    -0.01   0.01  -0.06     0.04  -0.01   0.03    -0.04   0.00   0.16
    47   1     0.00  -0.01  -0.06     0.03  -0.00   0.03    -0.05   0.04   0.13
    48   6    -0.01   0.03  -0.05     0.03  -0.03   0.02     0.03  -0.09   0.06
    49   1    -0.02   0.03  -0.05     0.04  -0.04   0.03     0.02  -0.09   0.07
    50   1    -0.02   0.03  -0.06     0.04  -0.03   0.02     0.04  -0.12   0.10
    51   1    -0.01   0.03  -0.04     0.02  -0.04   0.01     0.04  -0.12   0.01
    52   6     0.04  -0.04   0.02     0.00   0.06  -0.01    -0.07  -0.00  -0.12
    53   1     0.03  -0.02   0.01     0.01   0.05  -0.02    -0.09   0.07  -0.18
    54   1     0.06  -0.05   0.04    -0.01   0.07  -0.03    -0.08  -0.02  -0.11
    55   1     0.04  -0.06  -0.01    -0.01   0.06   0.01    -0.11  -0.07  -0.14
    56   6     0.03  -0.00   0.07     0.05   0.06  -0.03     0.06   0.11  -0.02
    57   1     0.04  -0.01   0.08     0.05   0.07  -0.03     0.05   0.09  -0.01
    58   1     0.02   0.01   0.06     0.04   0.07  -0.03     0.05   0.17  -0.08
    59   1     0.03   0.00   0.07     0.06   0.05  -0.03     0.11   0.12   0.03
    60   6     0.06  -0.07   0.05     0.03   0.05  -0.02    -0.04  -0.15   0.07
    61   1     0.06  -0.08   0.08     0.04   0.07  -0.04    -0.03  -0.13   0.07
    62   1     0.07  -0.09   0.06     0.04   0.04  -0.02    -0.04  -0.20   0.13
    63   1     0.07  -0.09   0.03    -0.00   0.06  -0.01    -0.09  -0.18   0.00
    64   6     0.04  -0.02   0.07     0.07   0.01  -0.03     0.07  -0.03   0.16
    65   1     0.04  -0.03   0.07     0.08  -0.01  -0.03     0.07  -0.08   0.22
    66   1     0.04  -0.03   0.10     0.09   0.03  -0.04     0.09  -0.01   0.17
    67   1     0.03  -0.00   0.07     0.08  -0.00  -0.02     0.11   0.03   0.16
    68   6    -0.04   0.02   0.07     0.03  -0.03  -0.06     0.08   0.00  -0.03
    69   1    -0.05   0.03   0.09     0.04  -0.04  -0.09     0.10  -0.01  -0.06
    70   1    -0.04  -0.01   0.07     0.05  -0.01  -0.04     0.10   0.04  -0.01
    71   1    -0.05   0.05   0.08     0.00  -0.05  -0.05     0.06   0.00  -0.03
    72   6    -0.02   0.07   0.02    -0.01  -0.07  -0.07     0.03  -0.05  -0.04
    73   1    -0.03   0.08   0.03     0.01  -0.07  -0.11     0.05  -0.06  -0.06
    74   1    -0.03   0.09   0.03    -0.04  -0.09  -0.07     0.02  -0.06  -0.04
    75   1     0.00   0.08  -0.00    -0.02  -0.07  -0.06     0.00  -0.06  -0.04
    76   6     0.01   0.06  -0.01    -0.04  -0.07   0.02    -0.02  -0.01  -0.00
    77   1    -0.01   0.07   0.01    -0.04  -0.09   0.00    -0.00  -0.01  -0.01
    78   1     0.02   0.05  -0.03    -0.06  -0.07   0.05    -0.04   0.01   0.02
    79   1     0.01   0.09  -0.02    -0.05  -0.10   0.01    -0.03  -0.03  -0.01
    80   6    -0.00  -0.01   0.01     0.00  -0.01   0.02     0.02   0.06  -0.00
    81   1     0.01  -0.01  -0.03    -0.01  -0.00   0.07    -0.01   0.07   0.03
    82   1    -0.01   0.01   0.04     0.00  -0.02   0.00     0.04   0.06  -0.02
    83   1    -0.01  -0.05   0.02     0.03   0.04   0.01     0.04   0.08  -0.01
    84   1    -0.01   0.04  -0.10    -0.01  -0.04   0.10    -0.03  -0.02   0.01
    85   1    -0.04  -0.00  -0.03     0.00  -0.01  -0.00    -0.01  -0.01  -0.01
    86   6    -0.02   0.01   0.05    -0.03  -0.05   0.01     0.01   0.01  -0.01
    87   6    -0.12   0.04   0.12    -0.03  -0.09   0.04    -0.02   0.02   0.02
    88   6     0.03   0.01   0.08    -0.07  -0.05   0.00     0.07   0.03  -0.04
    89   6    -0.15   0.06   0.22    -0.08  -0.15   0.06    -0.00   0.05   0.01
    90   1    -0.17   0.04   0.10     0.01  -0.09   0.04    -0.07   0.01   0.04
    91   6    -0.01   0.04   0.18    -0.13  -0.10   0.02     0.09   0.05  -0.04
    92   1     0.09  -0.01   0.03    -0.07  -0.02  -0.02     0.09   0.02  -0.06
    93   6    -0.10   0.06   0.25    -0.13  -0.15   0.06     0.06   0.07  -0.02
    94   1    -0.23   0.08   0.27    -0.08  -0.18   0.08    -0.03   0.06   0.04
    95   1     0.03   0.03   0.20    -0.16  -0.10   0.02     0.14   0.07  -0.07
    96   1    -0.13   0.08   0.32    -0.17  -0.19   0.08     0.07   0.08  -0.02
                      7                      8                      9
                      A                      A                      A
 Frequencies --     43.9842                46.0899                50.2196
 Red. masses --      4.3825                 4.9381                 3.9092
 Frc consts  --      0.0050                 0.0062                 0.0058
 IR Inten    --      0.3539                 1.0349                 0.1460
  Atom AN      X      Y      Z        X      Y      Z        X      Y      Z
     1   6     0.03  -0.01  -0.03    -0.04  -0.01  -0.03     0.00   0.01  -0.01
     2   6     0.02   0.03  -0.05    -0.00  -0.02  -0.00     0.01   0.01   0.00
     3   6     0.04   0.01  -0.05    -0.02   0.00  -0.04     0.03  -0.02   0.02
     4   6     0.06  -0.02  -0.03    -0.05   0.01  -0.07     0.04  -0.03   0.04
     5   6     0.05  -0.03  -0.02    -0.06   0.01  -0.06     0.03  -0.01   0.02
     6   6     0.02  -0.01  -0.02    -0.06   0.00  -0.04    -0.02   0.02  -0.02
[...]
 .00074736,0.00007617,0.00018486,0.00020165,0.00003379,0.00021121,-0.00
 006944,-0.00004807,0.00015236,-0.00008680,0.00021888,-0.00032842,0.000
 19992,0.00012282,-0.00036350,-0.00043201,-0.00016997,-0.00024361,0.000
 23778,-0.00007871,0.00007283,-0.00016785,0.00015043,0.00015770,0.00031
 391,0.00016187,-0.00009408,-0.00018215,0.00003000,-0.00004908,-0.00007
 324,-0.00008160,-0.00002473,0.00005176,-0.00003707,-0.00000426,0.00001
 483,-0.00007290,-0.00004637,0.00002132,0.00005670,-0.00006984,0.000050
 45,0.00000648,0.00011832,-0.00011539,-0.00009980,0.00001350,0.00000178
 ,0.00001502,0.00001171,0.00000870,0.00000187,-0.00000789,0.00000369,-0
 .00000142,-0.00000179,0.00000138,-0.00001371,0.00000273,0.00001730,0.0
 0002107,-0.00001339,0.00000242,0.,0.00001243,0.00000348,0.00000789,-0.
 00000721,-0.00000431,-0.00001039,0.00003635,0.00003801,-0.00002935,-0.
 00000427,0.00000287,0.00006320,-0.00000728,0.00002018,-0.00000207,0.00
 003356,-0.00004375,-0.00001392,0.00001342,0.00003250,-0.00001506,0.000
 00933,0.00000587,0.00000957,-0.00000750,0.00000049,0.00001645,-0.00001
 003,0.00000370,-0.00001602,0.00000375,-0.00000393,-0.00001369,0.000003
 54,0.00000189,0.00000653,0.00000805,0.00000028,-0.00000832,-0.00000621
 ,-0.00000478,0.00000456,0.00000610,-0.00000013,-0.00000861,0.00000650,
 -0.00000569,-0.00000316,0.00000278,0.00000235,0.00000538,-0.00000280,0
 .00000202,0.00000027,0.00000765,-0.00000859,-0.00000074,0.00000806,-0.
 00000526,-0.00000455,-0.00000347,0.00000217,-0.00000041,-0.00000376,0.
 00000247,0.00000100,0.00001089,-0.00000756,0.00000037,-0.00000238,0.00
 000445,0.00000075,0.00000727,-0.00000987,-0.00000019,-0.00000155,0.000
 00566,-0.00000245,0.00000067,-0.00000190,0.00001335,-0.00000194,-0.000
 00122,-0.00000327,-0.00000084,0.00000191,-0.00000256,0.00000508,-0.000
 00781,0.00000820,0.00000292,-0.00000159,0.00001119,-0.00000078,0.00000
 261,-0.00000405,-0.00000066,-0.00000462,0.00001242,0.00000118,-0.00000
 021,-0.00000781,0.00000700,-0.00001087,0.00000279,0.00000219,-0.000003
 36,0.00001039,0.00000495,0.00000503,0.00000073,-0.00000462,-0.00000005
 ,-0.00000261,0.00000217,-0.00001714,0.00001020,0.00000205,0.00000464,0
 .,0.00001109,-0.00000747,0.00000330,-0.00000580,0.00000446,0.00000032,
 -0.00000095,-0.00000248,-0.00000323,-0.00066802,0.00026991,-0.00017416
 ,0.00398801,0.00059769,0.00042586,0.00012960,0.00054816,0.00038613,-0.
 00080347,-0.01318150,-0.00681776,-0.00098524,0.00175575,-0.00288533,-0
 .00026294,-0.00017344,0.00023817,0.02875229,-0.30366618,-0.07897420,-0
 .00074525,0.00040126,0.00094730,0.00352001,-0.00815666,-0.00100960,0.0
 0027292,-0.00049273,-0.00012199,-0.03264699,0.32238420,0.00000289,-0.0
 0001634,0.00000692,0.00000682,0.00000188,0.00000339,-0.00000559,-0.000
 00201,0.00000730,0.00000620,0.00000139,-0.00000842,0.00000216,0.000005
 50,0.00000132,-0.00000929,0.00000309,0.00000944,0.00001915,0.00000802,
 -0.00008704,-0.00005031,-0.00001311,0.00002963,0.00004938,0.00004118,-
 0.00000023,0.00000838,-0.00001460,-0.00004109,-0.00001093,0.00000083,0
 .00000071,-0.00000091,0.00000004,-0.00000059,0.00000006,0.00000164,-0.
 00000007,-0.00001090,0.00001382,-0.00000258,-0.00000205,0.00000034,-0.
 00001359,0.00000058,0.00000152,0.00000032,-0.00000058,0.00000173,-0.00
 000457,-0.00001987,-0.00002824,-0.00000724,0.00004768,-0.00005357,0.00
 007539,-0.00016349,0.00027171,-0.00018520,0.00004529,0.00000415,-0.000
 02405,0.00001318,-0.00000278,-0.00000128,-0.00000952,0.00000589,-0.000
 01019,-0.00002268,0.00000942,-0.00000887,-0.00004331,0.00008567,0.0000
 1474,0.00002065,-0.00004142,-0.00005372,-0.00000051,0.00000611,0.00000
 294,0.00004868,-0.00004167,-0.00000641,-0.00002194,-0.00000698,-0.0000
 1986,-0.00002440,-0.00001310,0.00000839,-0.00000847,0.00000176,-0.0000
 0143,-0.00000539,0.00000113,-0.00000081,-0.00000962,0.00000067,0.00000
 539,-0.00001171,0.00000470,0.00000512,0.00002402,-0.00001129,-0.000006
 96,0.00000874,-0.00000754,0.00000147,-0.00000101,0.00000161,-0.0000003
 8,0.00000350,-0.00000211,-0.00000247,-0.00000320,0.00000194,0.00000277
 ,0.00000682,0.00000119,-0.00000556,0.00000263,-0.00000321,-0.00000083,
 0.00000102,0.00000003,0.00000249,-0.00000072,0.00000326,-0.00000089,-0
 .00001599,0.00003253,0.00003754,0.00000363,-0.00001863,-0.00003819,0.0
 0002459,-0.00000291,0.00000549,-0.00001631,-0.00002673,0.00002507,-0.0
 0000325,0.00000473,0.00000297,0.00000450,0.00000184,0.00000007,0.00000
 012,-0.00000333,-0.00000541,0.00000003,-0.00000161,0.00000051,0.000003
 55,0.00000216,0.00000017,-0.00000036,0.00000036,0.00000134,0.00000077,
 -0.00000135,-0.00000144,-0.00000169,-0.00000194,0.00000078,0.00000151,
 0.00000146,0.00000015,0.00000020,-0.00000088,-0.00000089,0.00000008,0.
 00000031,0.00000101,-0.00000047,0.00000090,-0.00000066,-0.00000068,-0.
 00000237,-0.00000099,0.00000163,-0.00000070,0.00000020,-0.00000023,0.0
 0000194,0.00000064,-0.00000106,0.00000053,-0.00000030,0.00000098,-0.00
 000235,-0.00000120,0.00000016,0.00000213,0.00000188,0.00000177,-0.0000
 0103,0.,-0.00000225,-0.00000106,-0.00000113,0.00000046,-0.00000091,-0.
 00000103,-0.00000010,0.00000095,-0.00000050,0.00000042,-0.00000036,-0.
 00000071,0.00000011,0.00000040,0.00000071,-0.00000043,0.00000036,-0.00
 000024,0.00000037,0.00000182,-0.00000076,0.00000084,-0.00000011,0.0000
 0067,-0.00000067,-0.00000149,0.00000012,-0.00000092,0.00000167,0.00000
 093,0.00000013,-0.00000114,-0.00000052,-0.00000050,0.00000072,-0.00000
 024,0.00000110,0.00000007,-0.00000101,0.00000084,0.00000234,-0.0000018
 1,-0.00000010,0.00000054,-0.00000011,-0.00000080,-0.00000050,0.0000007
 2,0.00000072,-0.00000045,0.00000031,-0.00000076,0.00000115,-0.00000117
 ,0.00027662,0.00001396,0.00027962,-0.00484739,-0.00014170,0.00327218,-
 0.00052040,0.00048878,-0.00037847,-0.00149373,0.01279707,0.00622510,-0
 .00598103,-0.00210709,0.00098223,0.00079092,0.00025964,-0.00066552,-0.
 00282860,-0.07826360,-0.06764926,0.00234814,0.00057710,-0.00169264,0.0
 0426284,-0.02075800,-0.00196311,0.00000457,-0.00119892,-0.00004023,0.0
 0596602,0.08682074,0.06337576,-0.00001491,-0.00001717,0.00001960,0.000
 00712,-0.00000480,-0.00001717,-0.00001081,-0.00000962,0.00000022,0.000
 00659,-0.00000712,-0.00001128,0.00000588,0.00001857,0.00001124,-0.0000
 0662,-0.00002533,-0.00001360,0.00000348,0.00000743,0.00001288,-0.00001
 192,0.00001371,-0.00000686,0.00000746,0.00000229,0.00000024,0.00000006
 ,0.00001446,-0.00001659,0.00000906,-0.00000656,-0.00000197,0.00000362,
 0.00000390,-0.00000040,0.00000253,-0.00000058,-0.00000362,0.00001001,-
 0.00001050,0.00002546,0.00000128,-0.00000361,-0.00000598,0.00000568,0.
 00000055,-0.00000311,0.00000716,0.00000291,-0.00000074,-0.00001206,0.0
 0001335,-0.00003648,0.00012206,-0.00007391,0.00000312,-0.00066827,0.00
 038525,-0.00011767,-0.00012656,-0.00006171,0.00000817,-0.00010830,0.00
 005078,0.00002435,-0.00007402,0.00004467,-0.00008720,0.00021595,-0.000
 14351,-0.00005514,0.00019235,0.00001753,0.00001177,0.00021872,-0.00013
 997,0.00006115,-0.00004724,0.00009279,-0.00006566,-0.00016220,-0.00004
 308,-0.00007484,0.00008287,0.00007193,0.00000340,0.00005051,0.00003246
 ,0.00002581,0.00001580,-0.00003177,0.00002744,0.00000642,-0.00001135,0
 .00004214,0.00003306,-0.00001372,-0.00003880,0.00004757,-0.00003581,-0
 .00001209,-0.00008661,0.00007874,0.00007714,-0.00000944,0.00000247,-0.
 00000104,-0.00000418,-0.00000523,-0.00000239,-0.00000419,0.00000367,0.
 00000376,0.00000656,0.00000013,-0.00000178,-0.00000738,-0.00000518,-0.
 00000261,-0.00000035,0.00000375,0.00000242,-0.00000743,-0.00000223,-0.
 00000650,0.00000407,-0.00000224,0.00000428,-0.00000709,-0.00002340,0.0
 0002121,0.00000485,0.00001720,0.00001467,-0.00002366,-0.00000936,-0.00
 001233,0.00002353,0.00001685,-0.00002649,-0.00000896,-0.00000404,0.000
 00137,-0.00000861,-0.00000625,-0.00000420,0.00000435,0.00000168,-0.000
 00017,0.00000182,0.00000201,0.00000006,-0.00000504,-0.00000195,0.00000
 542,0.00000230,-0.00000112,-0.00000254,-0.00000637,0.00000345,0.000005
 87,0.00000387,0.00000145,-0.00000613,-0.00000497,-0.00000043,0.0000035
 0,-0.00000428,0.00000402,0.00000327,0.00000008,-0.00000134,-0.00000306
 ,0.00000171,-0.00000171,-0.00000020,-0.00000453,0.00000672,0.00000116,
 -0.00000540,0.00000308,0.00000336,0.00000365,0.00000068,-0.00000012,0.
 00000061,-0.00000346,-0.00000155,-0.00000706,0.00000597,0.00000183,0.0
 0000279,-0.00000296,-0.00000189,-0.00000563,0.00000645,-0.00000041,0.0
 0000247,-0.00000425,0.00000268,-0.00000071,0.00000188,-0.00000539,0.00
 000202,0.00000057,0.00000196,-0.00000068,-0.00000097,0.00000183,-0.000
 00275,0.00000362,-0.00000493,-0.00000043,-0.00000163,-0.00000476,0.000
 00075,-0.00000261,0.00000288,-0.00000107,0.00000268,-0.00000695,-0.000
 00039,0.00000223,0.00000474,-0.00000272,0.00000240,-0.00000230,-0.0000
 0141,0.00000399,-0.00000466,-0.00000075,-0.00000335,0.00000068,0.00000
 081,-0.00000067,0.00000282,-0.00000373,0.00000699,-0.00000518,0.000000
 53,-0.00000289,0.00000128,-0.00000562,0.00000553,-0.00000259,0.0000040
 0,-0.00000273,0.00000012,-0.00000029,0.00000455,0.00000259,0.00046232,
 -0.00044180,0.00028209,-0.00049381,-0.00074419,0.00094216,0.00392075,0
 .00144912,-0.00217030,0.00165640,-0.00172917,-0.00535685,0.00021348,-0
 .00027504,-0.00159818,0.00005808,0.00004628,-0.00022977,-0.01020545,0.
 01304375,-0.00556036,-0.00052139,0.00067084,-0.00041842,-0.18987696,0.
 11626497,-0.09135449,-0.00114339,-0.00057020,0.00210183,-0.00090122,-0
 .00095099,0.00213875,0.19717982,0.00002684,0.00000333,-0.00004201,0.00
 002191,0.00004784,0.00000167,-0.00001294,0.00000554,0.00001866,0.00000
 543,0.00000364,-0.00000898,-0.00001098,0.00000500,0.00000037,0.0000080
 1,-0.00001141,-0.00003202,-0.00001023,-0.00000202,0.00001052,0.0000098
 8,0.00000948,-0.00000600,-0.00000969,-0.00001263,-0.00000550,-0.000007
 25,0.00002272,0.00001683,-0.00002606,0.00001638,0.00000251,-0.00000297
 ,-0.00000698,0.00000260,-0.00000322,-0.00000432,0.00000851,0.00000068,
 -0.00000461,0.00000220,0.00000139,0.00000232,0.00000227,-0.00000172,-0
 .00000079,0.00000673,0.00000194,-0.00000886,0.00000099,0.00002895,-0.0
 0001326,0.00004686,0.00003091,-0.00001742,-0.00003092,-0.00005227,0.00
 005948,0.00008385,0.00005458,0.00004477,0.00001207,0.00008152,-0.00002
 291,-0.00001340,0.00003422,-0.00002105,0.00006191,-0.00010998,0.000035
 23,0.00001547,-0.00008525,-0.00011440,-0.00004801,-0.00001246,0.000001
 88,-0.00007468,0.00002166,-0.00004804,0.00006247,0.00000719,0.00006752
 ,0.00002030,-0.00000914,-0.00000618,-0.00000019,-0.00001904,-0.0000193
 1,-0.00001669,-0.00001270,0.00001658,-0.00001199,-0.00000493,0.0000060
 7,-0.00002663,-0.00001791,0.00001094,0.00001932,-0.00004033,0.00003339
 ,0.00000981,0.00005803,-0.00004353,-0.00001747,0.00000174,0.00000236,0
 .00000087,0.00000240,0.00000274,0.00000151,-0.00000013,-0.00000188,-0.
 00000087,-0.00000151,-0.00000079,-0.00000006,0.00000236,0.00000115,0.0
 0000264,-0.00000207,-0.00000128,-0.00000076,0.00000348,0.00000175,0.00
 000328,-0.00000236,-0.00000105,-0.00000240,0.00000307,-0.00000298,0.00
 000209,-0.00000039,0.00000142,-0.00000063,-0.00000011,0.00000351,-0.00
 000175,-0.00000232,0.00000017,-0.00000222,0.00000092,0.00000020,0.0000
 0120,0.00000247,0.00000165,0.00000056,-0.00000183,0.00000055,0.0000009
 1,-0.00000045,-0.00000119,-0.00000032,0.00000123,0.,-0.00000400,0.0000
 0023,0.00000110,0.00000203,0.00000363,-0.00000116,-0.00000382,-0.00000
 266,-0.00000153,0.00000323,0.00000263,0.00000164,-0.00000091,0.0000023
 4,-0.00000238,-0.00000200,0.00000124,0.00000117,0.00000220,-0.00000136
 ,0.00000003,0.00000041,0.00000326,-0.00000374,-0.00000224,0.00000521,-
 0.00000267,-0.00000104,-0.00000279,0.00000237,0.00000103,-0.00000285,0
 .00000101,0.00000167,0.00000386,-0.00000523,-0.00000115,-0.00000150,0.
 00000357,0.00000126,0.00000482,-0.00000467,0.00000042,-0.00000174,0.00
 000286,-0.00000132,0.00000053,-0.00000094,0.00000393,-0.00000124,-0.00
 000016,-0.00000176,-0.00000032,0.00000085,-0.00000119,0.00000214,-0.00
 000243,0.00000355,0.00000060,-0.00000117,0.00000387,-0.00000045,0.0000
 0179,-0.00000249,0.00000040,-0.00000136,0.00000532,0.00000015,-0.00000
 047,-0.00000284,0.00000216,-0.00000170,0.00000134,0.00000094,-0.000002
 25,0.00000322,0.00000083,0.00000206,-0.00000017,-0.00000112,0.00000041
 ,-0.00000113,0.00000095,-0.00000323,0.00000142,-0.00000003,0.00000168,
 -0.00000080,0.00000277,-0.00000312,0.00000200,-0.00000221,0.00000244,-
 0.00000043,0.00000185,-0.00000193,-0.00000107,0.00000025,-0.00007233,0
 .00007686,-0.00085354,-0.00057134,-0.00035037,0.00050677,-0.00422796,-
 0.00409223,-0.00062912,0.00032766,-0.00315717,0.02244500,-0.01124026,0
 .01456242,0.00120636,-0.00073491,0.00057465,-0.00997183,0.01015242,-0.
 00549876,-0.00049339,0.00037813,-0.00036402,0.11630598,-0.14434589,0.0
 5810311,-0.00116669,0.00075401,0.00080960,-0.00032385,0.00035795,0.001
 30071,-0.12699875,0.14919899,0.00000229,-0.00000414,-0.00000016,0.0000
 0643,0.00000393,-0.00000167,-0.00000123,-0.00000018,0.00000115,0.00000
 543,0.00000079,-0.00000422,0.00000006,0.00000465,0.00000588,-0.0000176
 0,-0.00000138,0.00001804,-0.00003536,-0.00001725,0.00001126,0.00001595
 ,0.00000209,0.00001554,0.00000597,0.00000225,0.00000185,0.00001750,-0.
 00001610,-0.00000004,-0.00000765,-0.00000372,0.00000079,0.00000034,0.0
 0000263,0.00000025,0.00000091,0.00000377,-0.00000543,-0.00000833,-0.00
 000051,0.00001500,-0.00000684,0.00000031,-0.00000381,0.00000131,0.0000
 0522,-0.00000901,-0.00000170,0.00000866,-0.00000283,0.00003924,-0.0000
 1706,0.00002623,-0.00007991,0.00006858,0.00001765,0.00031753,-0.000065
 16,0.00003066,-0.00004146,-0.00000474,-0.00000165,-0.00004510,0.000020
 80,0.00001956,-0.00000951,0.00002935,-0.00004314,0.00003945,-0.0000165
 0,-0.00006001,0.00011064,-0.00005096,0.00001187,-0.00009737,-0.0000247
 1,0.00004218,0.00000241,0.00002985,-0.00003697,-0.00006198,0.00005063,
 -0.00002917,0.00005669,0.00001285,0.00002074,0.00002950,0.00001157,0.0
 0001451,0.00001016,-0.00001442,0.00000941,0.00000183,-0.00000455,0.000
 01088,0.00000812,-0.00001388,-0.00001045,0.00001387,-0.00001351,0.,-0.
 00001446,0.00002890,0.00002113,-0.00000165,-0.00000066,0.00000239,-0.0
 0000208,-0.00000189,-0.00000227,-0.00000208,0.00000192,0.00000215,0.00
 000291,0.00000315,-0.00000268,-0.00000369,0.00000012,-0.00000054,-0.00
 000137,0.00000165,0.00000144,-0.00000399,-0.00000122,-0.00000326,0.000
 00188,-0.00000155,0.00000119,-0.00001150,-0.00001234,0.00002994,0.0000
 0480,0.00001465,0.00001346,-0.00001984,-0.00000332,-0.00001372,0.00002
 279,0.00000946,-0.00003080,-0.00000456,0.00000648,-0.00000020,-0.00000
 334,-0.00000269,-0.00000124,0.00000335,-0.00000107,0.00000038,-0.00000
 132,0.00000259,-0.00000351,-0.00000076,0.00000092,0.00000283,0.0000019
 4,-0.00000033,-0.00000069,-0.00000171,0.00000090,0.00000269,0.00000031
 ,-0.00000058,-0.00000269,-0.00000103,0.00000038,0.00000086,-0.00000144
 ,0.00000139,0.00000119,0.00000035,-0.00000102,-0.00000058,0.00000072,0
 .00000079,-0.00000115,-0.00000105,0.00000081,0.00000057,-0.00000211,0.
 00000121,0.00000034,0.00000127,-0.00000051,0.00000088,0.00000148,0.000
 00035,-0.00000106,-0.00000114,0.00000146,-0.00000102,0.00000109,0.0000
 0003,0.00000100,-0.00000171,0.00000213,-0.00000005,0.00000017,-0.00000
 212,-0.00000010,0.00000091,0.00000030,-0.00000126,0.00000095,0.0000012
 6,0.00000102,0.00000040,-0.00000087,0.00000033,-0.00000127,0.00000101,
 -0.00000180,-0.00000073,0.00000106,-0.00000290,0.00000105,0.00000054,0
 .00000142,0.00000020,0.00000079,-0.00000317,-0.00000097,-0.00000067,0.
 00000139,-0.00000211,0.00000240,-0.00000138,-0.00000083,0.00000191,-0.
 00000276,0.00000039,-0.00000117,0.00000113,0.00000105,-0.00000096,0.00
 000051,-0.00000081,0.00000150,-0.00000129,0.00000138,-0.00000085,0.000
 00165,-0.00000156,0.00000255,-0.00000152,0.00000158,-0.00000247,0.0000
 0063,0.00000051,-0.00000026,0.00000132,-0.00026063,0.00031188,-0.00028
 640,0.00078326,-0.00054140,-0.00121394,-0.00256662,-0.00319791,0.00355
 696,-0.00495976,-0.00394899,0.00126090,0.00745533,-0.00562921,0.006195
 78,0.00020371,-0.00041734,0.00035436,-0.01407616,0.01461093,-0.0047458
 8,-0.00087414,0.00058819,-0.00011320,-0.09163904,0.05809332,-0.0903801
 8,0.00187613,0.00134712,-0.00162712,0.00236897,0.00078710,-0.00145205,
 0.10145505,-0.06204888,0.08837569\\0.00000093,0.00000106,0.00000395,-0
 .00000429,-0.00000438,-0.00000215,-0.00000695,0.00000172,0.00000612,-0
 .00000021,-0.00000064,-0.00000364,-0.00001013,0.00000462,0.00000964,0.
 00000710,0.00000894,-0.00000109,0.00001201,0.00000705,-0.00000504,-0.0
 0000598,0.00000128,0.00000825,0.00000349,0.00001056,0.00000554,0.00000
 204,0.00000213,0.00000320,-0.00000377,0.00000116,0.00000210,-0.0000025
 1,0.00000531,0.00000479,0.00000244,0.00000462,0.00000044,-0.00000115,-
 0.00000083,0.00000092,0.00000474,0.00000265,0.00000014,0.00000459,0.00
 000511,0.00000169,-0.00000144,0.00000393,0.00000398,-0.00000007,0.0000
 0754,0.00000588,-0.00000462,-0.00000414,0.00000189,0.00000151,0.000003
 40,-0.00000007,0.00000184,-0.00000603,-0.00000094,0.00000463,0.0000005
 7,0.00000063,-0.00000317,-0.00000069,-0.00000568,-0.00000668,-0.000001
 24,-0.00000205,0.00000085,0.00000209,-0.00000158,0.00000320,0.00000167
 ,0.00000379,-0.00000341,0.00000030,0.00000329,0.00000071,-0.00000334,-
 0.00000103,-0.00000011,0.00000334,0.00000089,0.00000569,-0.00000180,-0
 .00000577,0.00000640,0.00000102,0.00000427,-0.00000039,-0.00000094,-0.
 00000397,-0.00000309,-0.00000544,-0.00000013,-0.00000091,0.00000073,-0
 .00000382,-0.00000384,-0.00000316,-0.00000036,0.00000162,-0.00000211,-
 0.00000678,0.00000436,-0.00000286,-0.00000268,0.00000156,-0.00000322,-
 0.00000259,0.00000282,-0.00000318,-0.00000160,0.00000369,-0.00000342,-
 0.00000229,0.00000119,-0.00000221,-0.00000279,0.00000250,-0.00000254,-
 0.00000323,0.00000145,-0.00000237,-0.00000295,0.00000396,0.00000410,-0
 .00000079,0.00000719,-0.00000140,-0.00000243,0.00000343,-0.00000335,-0
 .00000274,0.00000369,-0.00000083,-0.00000206,0.00001027,-0.00000235,-0
 .00000352,0.00000431,-0.00000273,-0.00000306,0.00000323,0.00000109,-0.
 00000101,0.00000305,0.00000041,-0.00000236,-0.00000003,-0.00000172,-0.
 00000193,-0.00000206,-0.00000451,-0.00000253,-0.00000232,-0.00000445,-
 0.00000165,-0.00000424,-0.00000168,-0.00000154,-0.00000458,0.,0.000001
 71,-0.00000074,-0.00000637,-0.00000608,-0.00000218,-0.00000372,-0.0000
 0272,-0.00000347,-0.00000449,-0.00000107,-0.00000925,-0.00000608,-0.00
 000403,-0.00000535,-0.00000337,-0.00000017,-0.00000183,0.00000018,0.00
 000260,-0.00000352,-0.00000267,-0.00000028,-0.00000195,-0.00000489,0.0
 0000503,-0.00000647,-0.00000162,0.00000059,-0.00000735,-0.00000071,-0.
 00000048,-0.00000202,-0.00000152,-0.00000257,-0.00000392,0.00000449,-0
 .00000303,-0.00000158,0.00000008,0.00000122,-0.00000276,-0.00000105,0.
 00000158,0.00000061,-0.00000193,0.00000375,-0.00000284,-0.00000034,0.0
 0000214,0.00000150,0.00000220,0.00000347,0.00000041,0.00000260,0.00000
 087,0.00000200,0.00000240,0.00000069,0.00000702,0.00000448,-0.00000535
 ,0.00000254,-0.00000286,0.00000203,-0.00000008,-0.00000276,-0.00000192
 ,-0.00000097,0.00000231,0.00000153,-0.00000073,-0.00000439,0.00000446,
 0.00000014,-0.00000250,-0.00000292,-0.00000114,-0.00000017,-0.00000211
 ,-0.00000010,-0.00000071,-0.00000393,-0.00000547,0.00000259,0.00000412
 ,-0.00000112,0.00000079,0.00000152,0.00000104,0.00000086,0.00000254,-0
 .00000478,0.00000131,-0.00000301,0.00000356,0.00000098,0.00000023,0.00
 000387,0.00000302,0.00000641,-0.00000129,0.00000224,0.00000269,-0.0000
 0151,-0.00000478,-0.00000474,0.00000266,0.00000150,0.00000128,0.000000
 46,0.00000446,0.00000397,-0.00000246,0.00000207,0.00000150,0.00000239,
 0.00000689,0.00000265,0.00000217,0.00000263,0.00000233\\\@
 The archive entry for this job was punched.


 I LOVE MANKIND - IT'S PEOPLE I CAN'T STAND.
     -- LINUS OF PEANUTS
 Job cpu time:       1 days 10 hours 33 minutes 39.5 seconds.
 Elapsed time:       0 days  2 hours 11 minutes 56.7 seconds.
 File lengths (MBytes):  RWF=   6133 Int=      0 D2E=      0 Chk=     40 Scr=      1
 Normal termination of Gaussian 16 at Sun Dec  8 00:30:50 2024.
