/mnt/lustre/scratch/nvme/SLURM/9663795/usccqdma.wP8FfgEzyW
OMP_STACKSIZE=0m
GAUSS_PDEF=16
GAUSS_MDEF=65536MB
GAUSS_RDEF=SCF=Direct
 Entering Gaussian System, Link 0=g16.exe
 Initial command:
 /opt/cesga/2020/software/Core/g16/c1/l1.exe "/mnt/lustre/scratch/nvme/SLURM/9663795/usccqdma.wP8FfgEzyW/Gau-217579.inp" -scrdir="/mnt/lustre/scratch/nvme/SLURM/9663795/usccqdma.wP8FfgEzyW/"
 Default is to use a total of  16 processors:
                               16 via shared-memory
                                1 via Linda
 Entering Link 1 = /opt/cesga/2020/software/Core/g16/c1/l1.exe PID=    217605.
  
 Copyright (c) 1988-2019, Gaussian, Inc.  All Rights Reserved.
  
 This is part of the Gaussian(R) 16 program.  It is based on
 the Gaussian(R) 09 system (copyright 2009, Gaussian, Inc.),
 the Gaussian(R) 03 system (copyright 2003, Gaussian, Inc.),
 the Gaussian(R) 98 system (copyright 1998, Gaussian, Inc.),
 the Gaussian(R) 94 system (copyright 1995, Gaussian, Inc.),
 the Gaussian 92(TM) system (copyright 1992, Gaussian, Inc.),
 the Gaussian 90(TM) system (copyright 1990, Gaussian, Inc.),
 the Gaussian 88(TM) system (copyright 1988, Gaussian, Inc.),
 the Gaussian 86(TM) system (copyright 1986, Carnegie Mellon
 University), and the Gaussian 82(TM) system (copyright 1983,
 Carnegie Mellon University). Gaussian is a federally registered
 trademark of Gaussian, Inc.
  
 This software contains proprietary and confidential information,
 including trade secrets, belonging to Gaussian, Inc.
  
 This software is provided under written license and may be
 used, copied, transmitted, or stored only in accord with that
 written license.
  
 The following legend is applicable only to US Government
 contracts under FAR:
  
                    RESTRICTED RIGHTS LEGEND
  
 Use, reproduction and disclosure by the US Government is
 subject to restrictions as set forth in subparagraphs (a)
 and (c) of the Commercial Computer Software - Restricted
 Rights clause in FAR 52.227-19.
  
 Gaussian, Inc.
 340 Quinnipiac St., Bldg. 40, Wallingford CT 06492
  
  
 ---------------------------------------------------------------
 Warning -- This program may not be used in any manner that
 competes with the business of Gaussian, Inc. or will provide
 assistance to any competitor of Gaussian, Inc.  The licensee
 of this program is prohibited from giving any competitor of
 Gaussian, Inc. access to this program.  By using this program,
 the user acknowledges that Gaussian, Inc. is engaged in the
 business of creating and licensing software in the field of
 computational chemistry and represents and warrants to the
 licensee that it is not a competitor of Gaussian, Inc. and that
 it will not use this program in any manner prohibited above.
 ---------------------------------------------------------------
  

 Cite this work as:
 Gaussian 16, Revision C.01,
 M. J. Frisch, G. W. Trucks, H. B. Schlegel, G. E. Scuseria, 
 M. A. Robb, J. R. Cheeseman, G. Scalmani, V. Barone, 
 G. A. Petersson, H. Nakatsuji, X. Li, M. Caricato, A. V. Marenich, 
 J. Bloino, B. G. Janesko, R. Gomperts, B. Mennucci, H. P. Hratchian, 
 J. V. Ortiz, A. F. Izmaylov, J. L. Sonnenberg, D. Williams-Young, 
 F. Ding, F. Lipparini, F. Egidi, J. Goings, B. Peng, A. Petrone, 
 T. Henderson, D. Ranasinghe, V. G. Zakrzewski, J. Gao, N. Rega, 
 G. Zheng, W. Liang, M. Hada, M. Ehara, K. Toyota, R. Fukuda, 
 J. Hasegawa, M. Ishida, T. Nakajima, Y. Honda, O. Kitao, H. Nakai, 
 T. Vreven, K. Throssell, J. A. Montgomery, Jr., J. E. Peralta, 
 F. Ogliaro, M. J. Bearpark, J. J. Heyd, E. N. Brothers, K. N. Kudin, 
 V. N. Staroverov, T. A. Keith, R. Kobayashi, J. Normand, 
 K. Raghavachari, A. P. Rendell, J. C. Burant, S. S. Iyengar, 
 J. Tomasi, M. Cossi, J. M. Millam, M. Klene, C. Adamo, R. Cammi, 
 J. W. Ochterski, R. L. Martin, K. Morokuma, O. Farkas, 
 J. B. Foresman, and D. J. Fox, Gaussian, Inc., Wallingford CT, 2019.
 
 ******************************************
 Gaussian 16:  ES64L-G16RevC.01  3-Jul-2019
                 7-Dec-2024 
 ******************************************
 Default route: SCF=Direct
 ----------------------------------------------------
 # m06/genecp scf=tight int=ultrafine 5d freq=noraman
 ----------------------------------------------------
 1/10=4,30=1,38=1/1,3;
 2/12=2,17=6,18=5,40=1/2;
 3/5=7,8=1,11=2,16=1,17=8,25=1,30=1,71=2,74=-54,75=-5,140=1/1,2,3;
 4//1;
 5/5=2,32=2,38=5,98=1/2;
 8/6=4,10=90,11=11/1;
 11/6=1,8=1,9=11,15=111,16=1/1,2,10;
 10/6=1/2;
 6/7=2,8=2,9=2,10=2,28=1/1;
 7/8=1,10=1,25=1/1,2,3,16;
 1/10=4,30=1/3;
 99//99;
 ------
 OPT-TS
 ------
 Symbolic Z-matrix:
 Charge =  0 Multiplicity = 1
 C                     2.46217  -2.00658  -0.58212 
 C                     1.13562  -2.92856   1.08714 
 C                     1.77868  -4.15586   0.98797 
 C                     2.80239  -4.29656   0.05947 
 C                     3.14727  -3.21201  -0.73474 
 C                     2.7775   -0.80038  -1.37926 
 C                     2.18558   1.38087  -1.88628 
 C                     3.29342   1.55117  -2.70408 
 C                     4.16201   0.48074  -2.86703 
 C                     3.89885  -0.70921  -2.20391 
 H                     0.30415  -2.75515   1.77266 
 H                     3.32607  -5.24388  -0.05335 
 H                     3.93347  -3.31222  -1.47879 
 H                     1.46519   2.18238  -1.71958 
 H                     5.04579   0.57231  -3.49443 
 H                     4.58224  -1.54855  -2.30797 
 N                     1.47285  -1.87899   0.32748 
 N                     1.93248   0.23942  -1.24097 
 Ir                    0.13777  -0.01987   0.13034 
 O                    -2.28844   0.55204   1.94136 
 O                    -2.33299  -1.52326  -0.82593 
 O                    -0.58419   2.89603  -0.00555 
 B                    -1.08675  -0.98439  -1.10236 
 B                    -1.32601  -0.35053   1.48798 
 B                    -0.9823    1.58724  -0.33151 
 O                    -2.1516    1.63813  -1.08626 
 O                    -1.47074  -1.56097   2.18412 
 C                    -2.44174  -1.38025   3.22206 
 C                    -3.26658  -0.17092   2.69682 
 C                    -1.41409   3.81646  -0.72789 
 C                    -2.68359   2.96465  -1.01828 
 C                    -2.90131  -1.96166  -2.06738 
 C                    -1.62799  -2.25501  -2.91118 
 O                    -0.69887  -1.28396  -2.40686 
 C                    -4.37126  -0.57554   1.72744 
 H                    -4.76154   0.33362   1.25069 
 H                    -3.97601  -1.22091   0.93292 
 H                    -5.20191  -1.08316   2.23737 
 C                    -3.83144   0.73282   3.77516 
 H                    -4.39251   1.55446   3.3104 
 H                    -4.52294   0.1806    4.4284 
 H                    -3.04132   1.17353   4.3934 
 C                    -3.23212  -2.66309   3.38898 
 H                    -4.05661  -2.528     4.10418 
 H                    -3.64632  -3.00079   2.43243 
 H                    -2.57881  -3.45722   3.77461 
 C                    -1.67839  -1.06731   4.50336 
 H                    -0.96675  -1.88003   4.69944 
 H                    -1.10772  -0.13432   4.40255 
 H                    -2.34488  -0.9793    5.3721 
 C                    -3.78566  -3.16394  -1.80454 
 H                    -4.1538   -3.59447  -2.7472 
 H                    -3.25418  -3.94233  -1.24537 
 H                    -4.65803  -2.85857  -1.21134 
 C                    -3.73186  -0.80848  -2.61627 
 H                    -4.43859  -0.48985  -1.83697 
 H                    -3.10137   0.05792  -2.84947 
 H                    -4.30016  -1.10294  -3.50948 
 C                    -1.02761  -3.62636  -2.62261 
 H                    -0.03199  -3.67665  -3.0829 
 H                    -0.90873  -3.78277  -1.54109 
 H                    -1.6383   -4.44292  -3.03145 
 C                    -1.79534  -2.06229  -4.4041 
 H                    -2.07489  -1.03136  -4.64623 
 H                    -0.85094  -2.28601  -4.91711 
 H                    -2.56618  -2.73847  -4.80159 
 C                    -3.69414   2.9871    0.12094 
 H                    -4.19916   3.95926   0.20595 
 H                    -4.45228   2.21852  -0.08387 
 H                    -3.21577   2.73216   1.07493 
 C                    -3.38075   3.28486  -2.32661 
 H                    -2.72524   3.11862  -3.18918 
 H                    -4.25855   2.63531  -2.44265 
 H                    -3.72798   4.32837  -2.34346 
 C                    -0.65809   4.20337  -1.99364 
 H                    -0.48957   3.32663  -2.63451 
 H                    -1.19104   4.96414  -2.57993 
 H                     0.32005   4.61714  -1.71011 
 C                    -1.6464    5.04593   0.1271 
 H                    -2.33745   5.74511  -0.36602 
 H                    -2.05592   4.77991   1.10745 
 H                    -0.694     5.56883   0.28944 
 C                     4.19949   1.41866   0.98103 
 O                     5.02807   1.93693   0.24199 
 C                     4.49317   0.08104   1.66043 
 C                     1.94237   1.49574   2.08176 
 N                     3.00964   2.03614   1.27322 
 C                     2.77184   3.38452   0.79066 
 H                     3.46925   2.50585  -3.19248 
 H                     1.47228  -4.98214   1.6245 
 C                     5.67427  -0.59997   0.98857 
 H                     3.61565  -0.58194   1.57956 
 C                     4.80501   0.32114   3.13943 
 H                     0.97226   1.63356   1.5586 
 H                     1.84324   2.03179   3.04015 
 H                     2.08309   0.43371   2.29835 
 H                     3.96495   0.75961   3.69158 
 H                     5.65994   1.00592   3.2305 
 H                     5.07777  -0.62139   3.63206 
 H                     5.84692  -1.58792   1.43653 
 H                     6.58268   0.00332   1.10419 
 H                     5.50886  -0.72351  -0.08801 
 H                     1.75811   3.45197   0.3698 
 H                     3.52378   3.62495   0.03538 
 H                     2.8504    4.10955   1.61589 
 

 GradGradGradGradGradGradGradGradGradGradGradGradGradGradGradGradGradGrad
 Berny optimization.
 Initialization pass.
 Trust Radius=3.00D-01 FncErr=1.00D-07 GrdErr=1.00D-07 EigMax=2.50D+02 EigMin=1.00D-04
 Number of steps in this run=      2 maximum allowed number of steps=      2.
 GradGradGradGradGradGradGradGradGradGradGradGradGradGradGradGradGradGrad

 Stoichiometry    C34H57B3IrN3O7
 Framework group  C1[X(C34H57B3IrN3O7)]
 Deg. of freedom   309
 Full point group                 C1      NOp   1
 Largest Abelian subgroup         C1      NOp   1
 Largest concise Abelian subgroup C1      NOp   1
                         Standard orientation:                         
 ---------------------------------------------------------------------
 Center     Atomic      Atomic             Coordinates (Angstroms)
 Number     Number       Type             X           Y           Z
 ---------------------------------------------------------------------
      1          6           0        2.462170   -2.006580   -0.582119
      2          6           0        1.135620   -2.928560    1.087141
      3          6           0        1.778680   -4.155860    0.987971
      4          6           0        2.802390   -4.296560    0.059471
      5          6           0        3.147270   -3.212010   -0.734739
      6          6           0        2.777500   -0.800380   -1.379259
      7          6           0        2.185580    1.380870   -1.886279
      8          6           0        3.293420    1.551170   -2.704079
      9          6           0        4.162010    0.480740   -2.867029
     10          6           0        3.898850   -0.709210   -2.203909
     11          1           0        0.304150   -2.755150    1.772661
     12          1           0        3.326070   -5.243880   -0.053349
     13          1           0        3.933470   -3.312220   -1.478789
     14          1           0        1.465190    2.182380   -1.719579
     15          1           0        5.045790    0.572310   -3.494429
     16          1           0        4.582240   -1.548550   -2.307969
     17          7           0        1.472850   -1.878990    0.327481
     18          7           0        1.932480    0.239420   -1.240969
     19         77           0        0.137770   -0.019870    0.130341
     20          8           0       -2.288440    0.552040    1.941361
     21          8           0       -2.332990   -1.523260   -0.825929
     22          8           0       -0.584190    2.896030   -0.005549
     23          5           0       -1.086750   -0.984390   -1.102359
     24          5           0       -1.326010   -0.350530    1.487981
     25          5           0       -0.982300    1.587240   -0.331509
     26          8           0       -2.151600    1.638130   -1.086259
     27          8           0       -1.470740   -1.560970    2.184121
     28          6           0       -2.441740   -1.380250    3.222061
     29          6           0       -3.266580   -0.170920    2.696821
     30          6           0       -1.414090    3.816460   -0.727889
     31          6           0       -2.683590    2.964650   -1.018279
     32          6           0       -2.901310   -1.961660   -2.067379
     33          6           0       -1.627990   -2.255010   -2.911179
     34          8           0       -0.698870   -1.283960   -2.406859
     35          6           0       -4.371260   -0.575540    1.727441
     36          1           0       -4.761540    0.333620    1.250691
     37          1           0       -3.976010   -1.220910    0.932921
     38          1           0       -5.201910   -1.083160    2.237371
     39          6           0       -3.831440    0.732820    3.775161
     40          1           0       -4.392510    1.554460    3.310401
     41          1           0       -4.522940    0.180600    4.428401
     42          1           0       -3.041320    1.173530    4.393401
     43          6           0       -3.232120   -2.663090    3.388981
     44          1           0       -4.056610   -2.528000    4.104181
     45          1           0       -3.646320   -3.000790    2.432431
     46          1           0       -2.578810   -3.457220    3.774611
     47          6           0       -1.678390   -1.067310    4.503361
     48          1           0       -0.966750   -1.880030    4.699441
     49          1           0       -1.107720   -0.134320    4.402551
     50          1           0       -2.344880   -0.979300    5.372101
     51          6           0       -3.785660   -3.163940   -1.804539
     52          1           0       -4.153800   -3.594470   -2.747199
     53          1           0       -3.254180   -3.942330   -1.245369
     54          1           0       -4.658030   -2.858570   -1.211339
     55          6           0       -3.731860   -0.808480   -2.616269
     56          1           0       -4.438590   -0.489850   -1.836969
     57          1           0       -3.101370    0.057920   -2.849469
     58          1           0       -4.300160   -1.102940   -3.509479
     59          6           0       -1.027610   -3.626360   -2.622609
     60          1           0       -0.031990   -3.676650   -3.082899
     61          1           0       -0.908730   -3.782770   -1.541089
     62          1           0       -1.638300   -4.442920   -3.031449
     63          6           0       -1.795340   -2.062290   -4.404099
     64          1           0       -2.074890   -1.031360   -4.646229
     65          1           0       -0.850940   -2.286010   -4.917109
     66          1           0       -2.566180   -2.738470   -4.801589
     67          6           0       -3.694140    2.987100    0.120941
     68          1           0       -4.199160    3.959260    0.205951
     69          1           0       -4.452280    2.218520   -0.083869
     70          1           0       -3.215770    2.732160    1.074931
     71          6           0       -3.380750    3.284860   -2.326609
     72          1           0       -2.725240    3.118620   -3.189179
     73          1           0       -4.258550    2.635310   -2.442649
     74          1           0       -3.727980    4.328370   -2.343459
     75          6           0       -0.658090    4.203370   -1.993639
     76          1           0       -0.489570    3.326630   -2.634509
     77          1           0       -1.191040    4.964140   -2.579929
     78          1           0        0.320050    4.617140   -1.710109
     79          6           0       -1.646400    5.045930    0.127101
     80          1           0       -2.337450    5.745110   -0.366019
     81          1           0       -2.055920    4.779910    1.107451
     82          1           0       -0.694000    5.568830    0.289441
     83          6           0        4.199490    1.418660    0.981031
     84          8           0        5.028070    1.936930    0.241991
     85          6           0        4.493170    0.081040    1.660431
     86          6           0        1.942370    1.495740    2.081761
     87          7           0        3.009640    2.036140    1.273221
     88          6           0        2.771840    3.384520    0.790661
     89          1           0        3.469250    2.505850   -3.192479
     90          1           0        1.472280   -4.982140    1.624501
     91          6           0        5.674270   -0.599970    0.988571
     92          1           0        3.615650   -0.581940    1.579561
     93          6           0        4.805010    0.321140    3.139431
     94          1           0        0.972260    1.633560    1.558601
     95          1           0        1.843240    2.031790    3.040151
     96          1           0        2.083090    0.433710    2.298351
     97          1           0        3.964950    0.759610    3.691581
     98          1           0        5.659940    1.005920    3.230501
     99          1           0        5.077770   -0.621390    3.632061
    100          1           0        5.846920   -1.587920    1.436531
    101          1           0        6.582680    0.003320    1.104191
    102          1           0        5.508860   -0.723510   -0.088009
    103          1           0        1.758110    3.451970    0.369801
    104          1           0        3.523780    3.624950    0.035381
    105          1           0        2.850400    4.109550    1.615891
 ---------------------------------------------------------------------
 Rotational constants (GHZ):           0.0784565           0.0592511           0.0549164
 General basis read from cards:  (5D, 7F)
 ======================================================================================================
                                       Pseudopotential Parameters
 ======================================================================================================
  Center     Atomic      Valence      Angular      Power
  Number     Number     Electrons     Momentum     of R      Exponent        Coefficient   SO-Coeffient
 ======================================================================================================
    1          6
                                   No pseudopotential on this center.
    2          6
                                   No pseudopotential on this center.
    3          6
                                   No pseudopotential on this center.
    4          6
                                   No pseudopotential on this center.
    5          6
                                   No pseudopotential on this center.
    6          6
                                   No pseudopotential on this center.
    7          6
                                   No pseudopotential on this center.
    8          6
                                   No pseudopotential on this center.
    9          6
                                   No pseudopotential on this center.
   10          6
                                   No pseudopotential on this center.
   11          1
                                   No pseudopotential on this center.
   12          1
                                   No pseudopotential on this center.
   13          1
                                   No pseudopotential on this center.
   14          1
                                   No pseudopotential on this center.
   15          1
                                   No pseudopotential on this center.
   16          1
                                   No pseudopotential on this center.
   17          7
                                   No pseudopotential on this center.
   18          7
                                   No pseudopotential on this center.
   19         77           17
                                      G and up 
                                                     1      823.5880147       -0.15780140    0.00000000
                                                     2      364.6613336    -1517.52704460    0.00000000
                                                     2       55.7082801     -316.53065290    0.00000000
                                                     2       12.0464544      -91.88809410    0.00000000
                                                     2        3.5120610       -9.22417730    0.00000000
                                      S - G
                                                     0      188.0490770        3.15780140    0.00000000
                                                     1      340.4194712       26.83225770    0.00000000
                                                     2      128.2373673      800.42500070    0.00000000
                                                     2       33.8644961      369.40506830    0.00000000
                                                     2        4.7560005      242.41718990    0.00000000
                                                     2        3.9649974     -118.21732820    0.00000000
                                      P - G
                                                     0      289.7291139        2.15780140    0.00000000
                                                     1       87.4633789       61.96786100    0.00000000
                                                     2       30.4363766      269.05819860    0.00000000
                                                     2        4.0553412      231.16547930    0.00000000
                                                     2        3.5525341     -133.69526670    0.00000000
                                      D - G
                                                     0      136.4017106        3.15780140    0.00000000
                                                     1       95.0776925       45.93498030    0.00000000
                                                     2       49.2258410      359.03446680    0.00000000
                                                     2       15.0874145      176.47401190    0.00000000
                                                     2        4.0405764       54.51552860    0.00000000
                                      F - G
                                                     0      127.3507908        3.95461970    0.00000000
                                                     1       66.2364374       52.97736550    0.00000000
                                                     2       34.4299229      274.86433830    0.00000000
                                                     2       10.1995721      137.20473380    0.00000000
                                                     2        2.5409702       14.86333050    0.00000000
   20          8
                                   No pseudopotential on this center.
   21          8
                                   No pseudopotential on this center.
   22          8
                                   No pseudopotential on this center.
   23          5
                                   No pseudopotential on this center.
   24          5
                                   No pseudopotential on this center.
   25          5
                                   No pseudopotential on this center.
   26          8
                                   No pseudopotential on this center.
   27          8
                                   No pseudopotential on this center.
   28          6
                                   No pseudopotential on this center.
   29          6
                                   No pseudopotential on this center.
   30          6
                                   No pseudopotential on this center.
   31          6
                                   No pseudopotential on this center.
   32          6
                                   No pseudopotential on this center.
   33          6
                                   No pseudopotential on this center.
   34          8
                                   No pseudopotential on this center.
   35          6
                                   No pseudopotential on this center.
   36          1
                                   No pseudopotential on this center.
   37          1
                                   No pseudopotential on this center.
   38          1
                                   No pseudopotential on this center.
   39          6
                                   No pseudopotential on this center.
   40          1
                                   No pseudopotential on this center.
   41          1
                                   No pseudopotential on this center.
   42          1
                                   No pseudopotential on this center.
   43          6
                                   No pseudopotential on this center.
   44          1
                                   No pseudopotential on this center.
   45          1
                                   No pseudopotential on this center.
   46          1
                                   No pseudopotential on this center.
   47          6
                                   No pseudopotential on this center.
   48          1
                                   No pseudopotential on this center.
   49          1
                                   No pseudopotential on this center.
   50          1
                                   No pseudopotential on this center.
   51          6
                                   No pseudopotential on this center.
   52          1
                                   No pseudopotential on this center.
   53          1
                                   No pseudopotential on this center.
   54          1
                                   No pseudopotential on this center.
   55          6
                                   No pseudopotential on this center.
   56          1
                                   No pseudopotential on this center.
   57          1
                                   No pseudopotential on this center.
   58          1
                                   No pseudopotential on this center.
   59          6
                                   No pseudopotential on this center.
   60          1
                                   No pseudopotential on this center.
   61          1
                                   No pseudopotential on this center.
   62          1
                                   No pseudopotential on this center.
   63          6
                                   No pseudopotential on this center.
   64          1
                                   No pseudopotential on this center.
   65          1
                                   No pseudopotential on this center.
   66          1
                                   No pseudopotential on this center.
   67          6
                                   No pseudopotential on this center.
   68          1
                                   No pseudopotential on this center.
   69          1
                                   No pseudopotential on this center.
   70          1
                                   No pseudopotential on this center.
   71          6
                                   No pseudopotential on this center.
   72          1
                                   No pseudopotential on this center.
   73          1
                                   No pseudopotential on this center.
   74          1
                                   No pseudopotential on this center.
   75          6
                                   No pseudopotential on this center.
   76          1
                                   No pseudopotential on this center.
   77          1
                                   No pseudopotential on this center.
   78          1
                                   No pseudopotential on this center.
   79          6
                                   No pseudopotential on this center.
   80          1
                                   No pseudopotential on this center.
   81          1
                                   No pseudopotential on this center.
   82          1
                                   No pseudopotential on this center.
   83          6
                                   No pseudopotential on this center.
   84          8
                                   No pseudopotential on this center.
   85          6
                                   No pseudopotential on this center.
   86          6
                                   No pseudopotential on this center.
   87          7
                                   No pseudopotential on this center.
   88          6
                                   No pseudopotential on this center.
   89          1
                                   No pseudopotential on this center.
   90          1
                                   No pseudopotential on this center.
   91          6
                                   No pseudopotential on this center.
   92          1
                                   No pseudopotential on this center.
   93          6
                                   No pseudopotential on this center.
   94          1
                                   No pseudopotential on this center.
   95          1
                                   No pseudopotential on this center.
   96          1
                                   No pseudopotential on this center.
   97          1
                                   No pseudopotential on this center.
   98          1
                                   No pseudopotential on this center.
   99          1
                                   No pseudopotential on this center.
  100          1
                                   No pseudopotential on this center.
  101          1
                                   No pseudopotential on this center.
  102          1
                                   No pseudopotential on this center.
  103          1
                                   No pseudopotential on this center.
  104          1
                                   No pseudopotential on this center.
  105          1
                                   No pseudopotential on this center.
 ======================================================================================================
 There are   843 symmetry adapted cartesian basis functions of A   symmetry.
 There are   794 symmetry adapted basis functions of A   symmetry.
   794 basis functions,  1587 primitive gaussians,   843 cartesian basis functions
   185 alpha electrons      185 beta electrons
       nuclear repulsion energy      7667.1449920870 Hartrees.
 NAtoms=  105 NActive=  105 NUniq=  105 SFac= 1.00D+00 NAtFMM=   60 NAOKFM=T Big=T
 Integral buffers will be    131072 words long.
 Raffenetti 2 integral format.
 Two-electron integral symmetry is turned on.
 One-electron integrals computed using PRISM.
   1 Symmetry operations used in ECPInt.
 ECPInt:  NShTT=   48205 NPrTT=  290969 LenC2=   38001 LenP2D=  117735.
 LDataN:  DoStor=T MaxTD1= 6 Len=  172
 NBasis=   794 RedAO= T EigKep=  5.39D-04  NBF=   794
 NBsUse=   794 1.00D-06 EigRej= -1.00D+00 NBFU=   794
 Defaulting to unpruned grid for atomic number  77.
 ExpMin= 2.90D-02 ExpMax= 5.48D+03 ExpMxC= 8.25D+02 IAcc=3 IRadAn=         5 AccDes= 0.00D+00
 Harris functional with IExCor= 1009 and IRadAn=       5 diagonalized for initial guess.
 HarFok:  IExCor= 1009 AccDes= 0.00D+00 IRadAn=         5 IDoV= 1 UseB2=F ITyADJ=14
 ICtDFT=  3500011 ScaDFX=  1.000000  1.000000  1.000000  1.000000
 Defaulting to unpruned grid for atomic number  77.
 FoFCou: FMM=F IPFlag=           0 FMFlag=      100000 FMFlg1=        2001
         NFxFlg=           0 DoJE=T BraDBF=F KetDBF=T FulRan=T
         wScrn=  0.000000 ICntrl=       500 IOpCl=  0 I1Cent=   200000004 NGrid=           0
         NMat0=    1 NMatS0=      1 NMatT0=    0 NMatD0=    1 NMtDS0=    0 NMtDT0=    0
 Petite list used in FoFCou.
 Requested convergence on RMS density matrix=1.00D-08 within 128 cycles.
 Requested convergence on MAX density matrix=1.00D-06.
 Requested convergence on             energy=1.00D-06.
 No special actions if energy rises.
 Defaulting to unpruned grid for atomic number  77.
 Defaulting to unpruned grid for atomic number  77.
 Defaulting to unpruned grid for atomic number  77.
 Defaulting to unpruned grid for atomic number  77.
 Defaulting to unpruned grid for atomic number  77.
 Defaulting to unpruned grid for atomic number  77.
 Defaulting to unpruned grid for atomic number  77.
 Defaulting to unpruned grid for atomic number  77.
 Defaulting to unpruned grid for atomic number  77.
 Defaulting to unpruned grid for atomic number  77.
 Defaulting to unpruned grid for atomic number  77.
 Defaulting to unpruned grid for atomic number  77.
 Defaulting to unpruned grid for atomic number  77.
 Defaulting to unpruned grid for atomic number  77.
 Defaulting to unpruned grid for atomic number  77.
 Defaulting to unpruned grid for atomic number  77.
 SCF Done:  E(RM06) =  -2198.98199317     A.U. after   15 cycles
            NFock= 15  Conv=0.53D-08     -V/T= 2.0401
 DoSCS=F DFT=T ScalE2(SS,OS)=  1.000000  1.000000
 Range of M.O.s used for correlation:     1   794
 NBasis=   794 NAE=   185 NBE=   185 NFC=     0 NFV=     0
 NROrb=    794 NOA=   185 NOB=   185 NVA=   609 NVB=   609
   1 Symmetry operations used in ECPInt.
 ECPInt:  NShTT=   48205 NPrTT=  290969 LenC2=   38001 LenP2D=  117735.
 LDataN:  DoStor=T MaxTD1= 7 Len=  274
 Number of processors reduced to   8 by ecpmxn.
 Symmetrizing basis deriv contribution to polar:
 IMax=3 JMax=2 DiffMx= 0.00D+00
 G2DrvN: will do   106 centers at a time, making    1 passes.
 Calling FoFCou, ICntrl=  3107 FMM=T I1Cent=   0 AccDes= 0.00D+00.
 Defaulting to unpruned grid for atomic number  77.
 Defaulting to unpruned grid for atomic number  77.
 Defaulting to unpruned grid for atomic number  77.
 Defaulting to unpruned grid for atomic number  77.
 Defaulting to unpruned grid for atomic number  77.
 Defaulting to unpruned grid for atomic number  77.
 Defaulting to unpruned grid for atomic number  77.
 Defaulting to unpruned grid for atomic number  77.
 Defaulting to unpruned grid for atomic number  77.
 Defaulting to unpruned grid for atomic number  77.
 Defaulting to unpruned grid for atomic number  77.
 Defaulting to unpruned grid for atomic number  77.
 Defaulting to unpruned grid for atomic number  77.
 Defaulting to unpruned grid for atomic number  77.
 Defaulting to unpruned grid for atomic number  77.
 Defaulting to unpruned grid for atomic number  77.
 End of G2Drv F.D. properties file   721 does not exist.
 End of G2Drv F.D. properties file   722 does not exist.
 End of G2Drv F.D. properties file   788 does not exist.
          IDoAtm=11111111111111111111111111111111111111111111111111
          IDoAtm=11111111111111111111111111111111111111111111111111
          IDoAtm=11111
          Differentiating once with respect to electric field.
                with respect to dipole field.
          Differentiating once with respect to nuclear coordinates.
 Defaulting to unpruned grid for atomic number  77.
 CalDSu exits because no D1Ps are significant.
 Defaulting to unpruned grid for atomic number  77.
 Defaulting to unpruned grid for atomic number  77.
 Defaulting to unpruned grid for atomic number  77.
 Defaulting to unpruned grid for atomic number  77.
 Defaulting to unpruned grid for atomic number  77.
 Defaulting to unpruned grid for atomic number  77.
 Defaulting to unpruned grid for atomic number  77.
 Defaulting to unpruned grid for atomic number  77.
 Defaulting to unpruned grid for atomic number  77.
 Defaulting to unpruned grid for atomic number  77.
 Defaulting to unpruned grid for atomic number  77.
 Defaulting to unpruned grid for atomic number  77.
 Defaulting to unpruned grid for atomic number  77.
 Defaulting to unpruned grid for atomic number  77.
 Defaulting to unpruned grid for atomic number  77.
 Defaulting to unpruned grid for atomic number  77.
          There are   318 degrees of freedom in the 1st order CPHF.  IDoFFX=6 NUNeed=     3.
    315 vectors produced by pass  0 Test12= 1.13D-13 1.00D-09 XBig12= 4.65D+02 9.66D+00.
 AX will form    72 AO Fock derivatives at one time.
    315 vectors produced by pass  1 Test12= 1.13D-13 1.00D-09 XBig12= 6.76D+01 1.03D+00.
    315 vectors produced by pass  2 Test12= 1.13D-13 1.00D-09 XBig12= 8.33D-01 7.71D-02.
    315 vectors produced by pass  3 Test12= 1.13D-13 1.00D-09 XBig12= 4.99D-03 4.99D-03.
    315 vectors produced by pass  4 Test12= 1.13D-13 1.00D-09 XBig12= 1.32D-05 2.77D-04.
    275 vectors produced by pass  5 Test12= 1.13D-13 1.00D-09 XBig12= 2.54D-08 1.53D-05.
     71 vectors produced by pass  6 Test12= 1.13D-13 1.00D-09 XBig12= 3.87D-11 3.52D-07.
      3 vectors produced by pass  7 Test12= 1.13D-13 1.00D-09 XBig12= 5.08D-14 1.35D-08.
 InvSVY:  IOpt=1 It=  1 EMax= 2.49D-14
 Solved reduced A of dimension  1924 with   318 vectors.
 Isotropic polarizability for W=    0.000000      468.34 Bohr**3.
 End of Minotr F.D. properties file   721 does not exist.
 End of Minotr F.D. properties file   722 does not exist.
 End of Minotr F.D. properties file   788 does not exist.
 Hyperfine terms turned off by default for NAtoms > 100.

 **********************************************************************

            Population analysis using the SCF Density.

 **********************************************************************

 Orbital symmetries:
       Occupied  (A) (A) (A) (A) (A) (A) (A) (A) (A) (A) (A) (A)
                 (A) (A) (A) (A) (A) (A) (A) (A) (A) (A) (A) (A)
                 (A) (A) (A) (A) (A) (A) (A) (A) (A) (A) (A) (A)
                 (A) (A) (A) (A) (A) (A) (A) (A) (A) (A) (A) (A)
                 (A) (A) (A) (A) (A) (A) (A) (A) (A) (A) (A) (A)
                 (A) (A) (A) (A) (A) (A) (A) (A) (A) (A) (A) (A)
                 (A) (A) (A) (A) (A) (A) (A) (A) (A) (A) (A) (A)
                 (A) (A) (A) (A) (A) (A) (A) (A) (A) (A) (A) (A)
                 (A) (A) (A) (A) (A) (A) (A) (A) (A) (A) (A) (A)
                 (A) (A) (A) (A) (A) (A) (A) (A) (A) (A) (A) (A)
                 (A) (A) (A) (A) (A) (A) (A) (A) (A) (A) (A) (A)
                 (A) (A) (A) (A) (A) (A) (A) (A) (A) (A) (A) (A)
                 (A) (A) (A) (A) (A) (A) (A) (A) (A) (A) (A) (A)
                 (A) (A) (A) (A) (A) (A) (A) (A) (A) (A) (A) (A)
                 (A) (A) (A) (A) (A) (A) (A) (A) (A) (A) (A) (A)
                 (A) (A) (A) (A) (A)
       Virtual   (A) (A) (A) (A) (A) (A) (A) (A) (A) (A) (A) (A)
                 (A) (A) (A) (A) (A) (A) (A) (A) (A) (A) (A) (A)
                 (A) (A) (A) (A) (A) (A) (A) (A) (A) (A) (A) (A)
                 (A) (A) (A) (A) (A) (A) (A) (A) (A) (A) (A) (A)
                 (A) (A) (A) (A) (A) (A) (A) (A) (A) (A) (A) (A)
                 (A) (A) (A) (A) (A) (A) (A) (A) (A) (A) (A) (A)
                 (A) (A) (A) (A) (A) (A) (A) (A) (A) (A) (A) (A)
                 (A) (A) (A) (A) (A) (A) (A) (A) (A) (A) (A) (A)
                 (A) (A) (A) (A) (A) (A) (A) (A) (A) (A) (A) (A)
                 (A) (A) (A) (A) (A) (A) (A) (A) (A) (A) (A) (A)
                 (A) (A) (A) (A) (A) (A) (A) (A) (A) (A) (A) (A)
                 (A) (A) (A) (A) (A) (A) (A) (A) (A) (A) (A) (A)
                 (A) (A) (A) (A) (A) (A) (A) (A) (A) (A) (A) (A)
                 (A) (A) (A) (A) (A) (A) (A) (A) (A) (A) (A) (A)
                 (A) (A) (A) (A) (A) (A) (A) (A) (A) (A) (A) (A)
                 (A) (A) (A) (A) (A) (A) (A) (A) (A) (A) (A) (A)
                 (A) (A) (A) (A) (A) (A) (A) (A) (A) (A) (A) (A)
                 (A) (A) (A) (A) (A) (A) (A) (A) (A) (A) (A) (A)
                 (A) (A) (A) (A) (A) (A) (A) (A) (A) (A) (A) (A)
                 (A) (A) (A) (A) (A) (A) (A) (A) (A) (A) (A) (A)
                 (A) (A) (A) (A) (A) (A) (A) (A) (A) (A) (A) (A)
                 (A) (A) (A) (A) (A) (A) (A) (A) (A) (A) (A) (A)
                 (A) (A) (A) (A) (A) (A) (A) (A) (A) (A) (A) (A)
                 (A) (A) (A) (A) (A) (A) (A) (A) (A) (A) (A) (A)
                 (A) (A) (A) (A) (A) (A) (A) (A) (A) (A) (A) (A)
                 (A) (A) (A) (A) (A) (A) (A) (A) (A) (A) (A) (A)
                 (A) (A) (A) (A) (A) (A) (A) (A) (A) (A) (A) (A)
                 (A) (A) (A) (A) (A) (A) (A) (A) (A) (A) (A) (A)
                 (A) (A) (A) (A) (A) (A) (A) (A) (A) (A) (A) (A)
                 (A) (A) (A) (A) (A) (A) (A) (A) (A) (A) (A) (A)
                 (A) (A) (A) (A) (A) (A) (A) (A) (A) (A) (A) (A)
                 (A) (A) (A) (A) (A) (A) (A) (A) (A) (A) (A) (A)
                 (A) (A) (A) (A) (A) (A) (A) (A) (A) (A) (A) (A)
                 (A) (A) (A) (A) (A) (A) (A) (A) (A) (A) (A) (A)
                 (A) (A) (A) (A) (A) (A) (A) (A) (A) (A) (A) (A)
                 (A) (A) (A) (A) (A) (A) (A) (A) (A) (A) (A) (A)
                 (A) (A) (A) (A) (A) (A) (A) (A) (A) (A) (A) (A)
                 (A) (A) (A) (A) (A) (A) (A) (A) (A) (A) (A) (A)
                 (A) (A) (A) (A) (A) (A) (A) (A) (A) (A) (A) (A)
                 (A) (A) (A) (A) (A) (A) (A) (A) (A) (A) (A) (A)
                 (A) (A) (A) (A) (A) (A) (A) (A) (A) (A) (A) (A)
                 (A) (A) (A) (A) (A) (A) (A) (A) (A) (A) (A) (A)
                 (A) (A) (A) (A) (A) (A) (A) (A) (A) (A) (A) (A)
                 (A) (A) (A) (A) (A) (A) (A) (A) (A) (A) (A) (A)
                 (A) (A) (A) (A) (A) (A) (A) (A) (A) (A) (A) (A)
                 (A) (A) (A) (A) (A) (A) (A) (A) (A) (A) (A) (A)
                 (A) (A) (A) (A) (A) (A) (A) (A) (A) (A) (A) (A)
                 (A) (A) (A) (A) (A) (A) (A) (A) (A) (A) (A) (A)
                 (A) (A) (A) (A) (A) (A) (A) (A) (A) (A) (A) (A)
                 (A) (A) (A) (A) (A) (A) (A) (A) (A) (A) (A) (A)
                 (A) (A) (A) (A) (A) (A) (A) (A) (A)
 The electronic state is 1-A.
 Alpha  occ. eigenvalues --  -19.19663 -19.19600 -19.19540 -19.19255 -19.18957
 Alpha  occ. eigenvalues --  -19.18850 -19.17894 -14.44436 -14.44179 -14.41948
 Alpha  occ. eigenvalues --  -10.33606 -10.31995 -10.31755 -10.30170 -10.29917
 Alpha  occ. eigenvalues --  -10.28948 -10.28899 -10.28792 -10.28683 -10.28527
 Alpha  occ. eigenvalues --  -10.28510 -10.28434 -10.28278 -10.28203 -10.28008
 Alpha  occ. eigenvalues --  -10.27676 -10.27376 -10.27234 -10.25432 -10.25364
 Alpha  occ. eigenvalues --  -10.23866 -10.22830 -10.22561 -10.22414 -10.22353
 Alpha  occ. eigenvalues --  -10.22344 -10.22327 -10.22202 -10.22165 -10.22109
 Alpha  occ. eigenvalues --  -10.21993 -10.21146 -10.21049 -10.20764  -6.79591
 Alpha  occ. eigenvalues --   -6.77925  -6.77834  -3.59851  -2.02589  -2.01858
 Alpha  occ. eigenvalues --   -2.01363  -1.05651  -1.05148  -1.04949  -1.03855
 Alpha  occ. eigenvalues --   -0.99673  -0.98704  -0.98254  -0.98027  -0.97187
 Alpha  occ. eigenvalues --   -0.93597  -0.84114  -0.83251  -0.82563  -0.80774
 Alpha  occ. eigenvalues --   -0.79849  -0.79727  -0.79481  -0.77201  -0.74349
 Alpha  occ. eigenvalues --   -0.74226  -0.73953  -0.71908  -0.69898  -0.69870
 Alpha  occ. eigenvalues --   -0.69756  -0.69626  -0.68806  -0.68668  -0.67636
 Alpha  occ. eigenvalues --   -0.67155  -0.67002  -0.66790  -0.64345  -0.63272
 Alpha  occ. eigenvalues --   -0.61277  -0.60992  -0.60751  -0.60533  -0.57299
 Alpha  occ. eigenvalues --   -0.54133  -0.53852  -0.53616  -0.53457  -0.53105
 Alpha  occ. eigenvalues --   -0.53053  -0.52971  -0.52427  -0.52239  -0.51016
 Alpha  occ. eigenvalues --   -0.50636  -0.49581  -0.48088  -0.47628  -0.47077
 Alpha  occ. eigenvalues --   -0.46714  -0.46407  -0.46318  -0.45936  -0.45835
 Alpha  occ. eigenvalues --   -0.45606  -0.45526  -0.45267  -0.44722  -0.44523
 Alpha  occ. eigenvalues --   -0.44038  -0.43767  -0.43582  -0.43550  -0.43019
 Alpha  occ. eigenvalues --   -0.42808  -0.42633  -0.42603  -0.42198  -0.41079
 Alpha  occ. eigenvalues --   -0.40529  -0.40445  -0.40150  -0.39713  -0.39668
 Alpha  occ. eigenvalues --   -0.39568  -0.39394  -0.39323  -0.39251  -0.39165
 Alpha  occ. eigenvalues --   -0.39039  -0.38890  -0.38845  -0.38646  -0.38546
 Alpha  occ. eigenvalues --   -0.38313  -0.38069  -0.37574  -0.37072  -0.36910
 Alpha  occ. eigenvalues --   -0.36765  -0.36699  -0.36287  -0.36018  -0.35819
 Alpha  occ. eigenvalues --   -0.35595  -0.35515  -0.35433  -0.35280  -0.35188
 Alpha  occ. eigenvalues --   -0.34661  -0.34435  -0.34253  -0.34159  -0.34083
 Alpha  occ. eigenvalues --   -0.33939  -0.32862  -0.32173  -0.31798  -0.31653
 Alpha  occ. eigenvalues --   -0.31456  -0.31336  -0.30906  -0.30605  -0.30402
 Alpha  occ. eigenvalues --   -0.29518  -0.29440  -0.29138  -0.28695  -0.26545
 Alpha  occ. eigenvalues --   -0.26260  -0.25539  -0.25117  -0.24949  -0.24628
 Alpha  occ. eigenvalues --   -0.24283  -0.23793  -0.20516  -0.20502  -0.20189
 Alpha virt. eigenvalues --   -0.07058  -0.03798  -0.02773   0.01504   0.01806
 Alpha virt. eigenvalues --    0.03562   0.04509   0.05528   0.06632   0.07417
 Alpha virt. eigenvalues --    0.07683   0.08533   0.10276   0.10406   0.10604
 Alpha virt. eigenvalues --    0.10987   0.11346   0.11749   0.12261   0.12770
 Alpha virt. eigenvalues --    0.13109   0.13286   0.13669   0.13927   0.14155
 Alpha virt. eigenvalues --    0.14324   0.14467   0.14524   0.14760   0.14895
 Alpha virt. eigenvalues --    0.15306   0.15388   0.15692   0.15838   0.15990
 Alpha virt. eigenvalues --    0.16139   0.16189   0.16463   0.16733   0.16903
 Alpha virt. eigenvalues --    0.16993   0.17251   0.17513   0.17559   0.17956
 Alpha virt. eigenvalues --    0.18109   0.18237   0.18354   0.18514   0.18763
 Alpha virt. eigenvalues --    0.18894   0.19151   0.19338   0.19468   0.19740
 Alpha virt. eigenvalues --    0.19822   0.19879   0.20175   0.20416   0.20727
 Alpha virt. eigenvalues --    0.20815   0.20947   0.21068   0.21164   0.21512
 Alpha virt. eigenvalues --    0.21690   0.21797   0.22078   0.22455   0.22620
 Alpha virt. eigenvalues --    0.23085   0.23167   0.23427   0.23565   0.24026
 Alpha virt. eigenvalues --    0.24411   0.24661   0.24758   0.24977   0.25264
 Alpha virt. eigenvalues --    0.25544   0.25792   0.26014   0.26487   0.26599
 Alpha virt. eigenvalues --    0.26789   0.27247   0.27755   0.27792   0.27882
 Alpha virt. eigenvalues --    0.28249   0.28622   0.28669   0.28893   0.29210
 Alpha virt. eigenvalues --    0.29455   0.29858   0.30094   0.30444   0.30680
 Alpha virt. eigenvalues --    0.31996   0.32450   0.32579   0.33075   0.33802
 Alpha virt. eigenvalues --    0.35312   0.35610   0.36138   0.36443   0.37440
 Alpha virt. eigenvalues --    0.38003   0.38584   0.39369   0.40327   0.41362
 Alpha virt. eigenvalues --    0.41623   0.42648   0.43407   0.45009   0.46442
 Alpha virt. eigenvalues --    0.47277   0.47829   0.48959   0.49154   0.49678
 Alpha virt. eigenvalues --    0.49973   0.50460   0.51054   0.51480   0.51650
 Alpha virt. eigenvalues --    0.52035   0.52216   0.52520   0.53183   0.53792
 Alpha virt. eigenvalues --    0.53929   0.54186   0.54766   0.55158   0.55479
 Alpha virt. eigenvalues --    0.55736   0.56508   0.56808   0.57148   0.57438
 Alpha virt. eigenvalues --    0.57737   0.57934   0.58185   0.58602   0.58730
 Alpha virt. eigenvalues --    0.58917   0.59095   0.59206   0.59435   0.59754
 Alpha virt. eigenvalues --    0.60030   0.60339   0.60679   0.60837   0.61010
 Alpha virt. eigenvalues --    0.61183   0.61234   0.61526   0.61835   0.62419
 Alpha virt. eigenvalues --    0.62723   0.63458   0.63588   0.63753   0.64499
 Alpha virt. eigenvalues --    0.65031   0.65400   0.65874   0.66289   0.66417
 Alpha virt. eigenvalues --    0.67002   0.67193   0.67386   0.67922   0.68325
 Alpha virt. eigenvalues --    0.68804   0.69028   0.69414   0.69625   0.69929
 Alpha virt. eigenvalues --    0.70451   0.71203   0.71480   0.71749   0.72300
 Alpha virt. eigenvalues --    0.72554   0.72634   0.72754   0.73223   0.73536
 Alpha virt. eigenvalues --    0.73763   0.73927   0.74463   0.75086   0.75400
 Alpha virt. eigenvalues --    0.75828   0.76137   0.76369   0.76568   0.76855
 Alpha virt. eigenvalues --    0.77354   0.77661   0.77957   0.78359   0.78472
 Alpha virt. eigenvalues --    0.78944   0.79483   0.80014   0.80337   0.80843
 Alpha virt. eigenvalues --    0.81001   0.81469   0.82167   0.82563   0.82933
 Alpha virt. eigenvalues --    0.83248   0.83456   0.83718   0.83876   0.84144
 Alpha virt. eigenvalues --    0.84538   0.84770   0.85147   0.85255   0.85455
 Alpha virt. eigenvalues --    0.85879   0.86012   0.86338   0.86566   0.86751
 Alpha virt. eigenvalues --    0.87081   0.87534   0.87805   0.87863   0.88200
 Alpha virt. eigenvalues --    0.88400   0.88691   0.88788   0.89135   0.89403
 Alpha virt. eigenvalues --    0.89482   0.89715   0.90052   0.90336   0.90500
 Alpha virt. eigenvalues --    0.90820   0.90970   0.91083   0.91179   0.91574
 Alpha virt. eigenvalues --    0.92043   0.92314   0.92402   0.92486   0.92929
 Alpha virt. eigenvalues --    0.93133   0.93327   0.93546   0.93844   0.94144
 Alpha virt. eigenvalues --    0.94328   0.94889   0.95124   0.95272   0.95677
 Alpha virt. eigenvalues --    0.95990   0.96338   0.96649   0.96932   0.97121
 Alpha virt. eigenvalues --    0.97558   0.97858   0.98321   0.98473   0.98959
 Alpha virt. eigenvalues --    0.99243   0.99412   1.00216   1.00476   1.01086
 Alpha virt. eigenvalues --    1.01454   1.02308   1.02850   1.03305   1.03612
 Alpha virt. eigenvalues --    1.04066   1.04192   1.04888   1.05252   1.05646
 Alpha virt. eigenvalues --    1.06116   1.06403   1.07177   1.07660   1.08558
 Alpha virt. eigenvalues --    1.09182   1.09619   1.10370   1.10751   1.11520
 Alpha virt. eigenvalues --    1.12184   1.13096   1.13570   1.14278   1.15470
 Alpha virt. eigenvalues --    1.16239   1.17065   1.17941   1.18556   1.18938
 Alpha virt. eigenvalues --    1.19689   1.20473   1.20816   1.21065   1.21419
 Alpha virt. eigenvalues --    1.21841   1.22943   1.23512   1.23777   1.24047
 Alpha virt. eigenvalues --    1.25159   1.25647   1.26133   1.27215   1.29226
 Alpha virt. eigenvalues --    1.29647   1.29908   1.31015   1.31100   1.31716
 Alpha virt. eigenvalues --    1.32488   1.34003   1.34525   1.35842   1.36316
 Alpha virt. eigenvalues --    1.36958   1.37682   1.37964   1.38310   1.39904
 Alpha virt. eigenvalues --    1.40594   1.40854   1.41083   1.42058   1.42448
 Alpha virt. eigenvalues --    1.42747   1.43142   1.43739   1.44009   1.44383
 Alpha virt. eigenvalues --    1.45006   1.45791   1.45902   1.46437   1.47150
 Alpha virt. eigenvalues --    1.47382   1.47739   1.47821   1.48823   1.50015
 Alpha virt. eigenvalues --    1.50546   1.51119   1.51596   1.52207   1.52651
 Alpha virt. eigenvalues --    1.53664   1.54973   1.55636   1.56451   1.57325
 Alpha virt. eigenvalues --    1.58130   1.58667   1.58934   1.60607   1.62010
 Alpha virt. eigenvalues --    1.62226   1.63989   1.64563   1.64855   1.65468
 Alpha virt. eigenvalues --    1.66617   1.66710   1.68024   1.68167   1.68954
 Alpha virt. eigenvalues --    1.69572   1.69784   1.70851   1.70932   1.71684
 Alpha virt. eigenvalues --    1.72765   1.73853   1.74181   1.74857   1.76611
 Alpha virt. eigenvalues --    1.77164   1.77615   1.78030   1.78107   1.78689
 Alpha virt. eigenvalues --    1.78953   1.79225   1.80590   1.80696   1.81021
 Alpha virt. eigenvalues --    1.81374   1.82062   1.82147   1.83492   1.83913
 Alpha virt. eigenvalues --    1.84787   1.85269   1.85686   1.85874   1.86075
 Alpha virt. eigenvalues --    1.86682   1.86707   1.87424   1.87929   1.88235
 Alpha virt. eigenvalues --    1.89352   1.89835   1.90547   1.91536   1.91915
 Alpha virt. eigenvalues --    1.92144   1.92355   1.92561   1.92835   1.92954
 Alpha virt. eigenvalues --    1.93315   1.93407   1.93608   1.93868   1.94158
 Alpha virt. eigenvalues --    1.94523   1.94786   1.95334   1.95637   1.95937
 Alpha virt. eigenvalues --    1.96512   1.97273   1.97848   1.98856   1.99622
 Alpha virt. eigenvalues --    2.00175   2.00665   2.01463   2.01894   2.02161
 Alpha virt. eigenvalues --    2.02992   2.03316   2.03913   2.04518   2.05219
 Alpha virt. eigenvalues --    2.05713   2.06348   2.06689   2.06986   2.07448
 Alpha virt. eigenvalues --    2.07613   2.08051   2.08397   2.08595   2.08954
 Alpha virt. eigenvalues --    2.09225   2.09606   2.09890   2.10520   2.11135
 Alpha virt. eigenvalues --    2.11752   2.12157   2.12387   2.13140   2.13350
 Alpha virt. eigenvalues --    2.14416   2.14693   2.15254   2.15474   2.15781
 Alpha virt. eigenvalues --    2.16140   2.16668   2.17240   2.17663   2.17992
 Alpha virt. eigenvalues --    2.18160   2.18527   2.19126   2.19421   2.19661
 Alpha virt. eigenvalues --    2.19756   2.19972   2.20168   2.20393   2.20708
 Alpha virt. eigenvalues --    2.21533   2.22066   2.22637   2.22873   2.22938
 Alpha virt. eigenvalues --    2.23569   2.24018   2.24366   2.24757   2.26035
 Alpha virt. eigenvalues --    2.26244   2.26675   2.26912   2.27187   2.28025
 Alpha virt. eigenvalues --    2.28299   2.28845   2.29525   2.30050   2.31275
 Alpha virt. eigenvalues --    2.31579   2.32096   2.32395   2.32493   2.33137
 Alpha virt. eigenvalues --    2.34011   2.34549   2.34568   2.35198   2.35949
 Alpha virt. eigenvalues --    2.37342   2.38367   2.39067   2.39217   2.39661
 Alpha virt. eigenvalues --    2.39855   2.40459   2.41373   2.45042   2.46018
 Alpha virt. eigenvalues --    2.46235   2.47778   2.48055   2.48623   2.48863
 Alpha virt. eigenvalues --    2.49333   2.49649   2.50153   2.50930   2.51573
 Alpha virt. eigenvalues --    2.53892   2.55215   2.56909   2.59700   2.59807
 Alpha virt. eigenvalues --    2.60560   2.60820   2.61376   2.62250   2.63047
 Alpha virt. eigenvalues --    2.64055   2.65308   2.65507   2.65849   2.65973
 Alpha virt. eigenvalues --    2.66741   2.67653   2.68897   2.70182   2.71911
 Alpha virt. eigenvalues --    2.72363   2.78351   2.78594   2.78624   2.79075
 Alpha virt. eigenvalues --    2.79855   2.80725   2.81026   2.81301   2.81907
 Alpha virt. eigenvalues --    2.82285   2.82484   2.82640   2.84104   2.84785
 Alpha virt. eigenvalues --    2.85604   2.86806   2.88004   2.90353   2.92066
 Alpha virt. eigenvalues --    2.93638   2.94684   2.96624   2.97311   2.98639
 Alpha virt. eigenvalues --    2.98804   2.99470   3.04704   3.05277   3.06416
 Alpha virt. eigenvalues --    3.08069   3.12284   3.12468   3.12969   3.20259
 Alpha virt. eigenvalues --    3.24623   3.30715   3.44376  11.70418
          Condensed to atoms (all electrons):
 Mulliken charges:
               1
     1  C    0.275516
     2  C    0.029420
     3  C   -0.173527
     4  C   -0.142542
     5  C   -0.180957
     6  C    0.298297
     7  C    0.059521
     8  C   -0.148067
     9  C   -0.126496
    10  C   -0.179828
    11  H    0.238302
    12  H    0.181898
    13  H    0.172487
    14  H    0.176987
    15  H    0.185260
    16  H    0.167974
    17  N   -0.478867
    18  N   -0.474203
    19  Ir  -0.099453
    20  O   -0.517011
    21  O   -0.513720
    22  O   -0.540473
    23  B    0.525437
    24  B    0.489464
    25  B    0.434216
    26  O   -0.519626
    27  O   -0.542307
    28  C    0.308279
    29  C    0.293694
    30  C    0.303291
    31  C    0.294363
    32  C    0.290033
    33  C    0.299700
    34  O   -0.519987
    35  C   -0.505828
    36  H    0.156185
    37  H    0.194898
    38  H    0.138131
    39  C   -0.510769
    40  H    0.165788
    41  H    0.146471
    42  H    0.166656
    43  C   -0.508423
    44  H    0.147575
    45  H    0.177372
    46  H    0.156864
    47  C   -0.508316
    48  H    0.159119
    49  H    0.170977
    50  H    0.149631
    51  C   -0.512780
    52  H    0.148456
    53  H    0.170020
    54  H    0.167169
    55  C   -0.491396
    56  H    0.159211
    57  H    0.187836
    58  H    0.138879
    59  C   -0.509586
    60  H    0.163345
    61  H    0.174427
    62  H    0.149662
    63  C   -0.511384
    64  H    0.176553
    65  H    0.164661
    66  H    0.148041
    67  C   -0.500150
    68  H    0.139558
    69  H    0.157291
    70  H    0.191165
    71  C   -0.510301
    72  H    0.165106
    73  H    0.167085
    74  H    0.147270
    75  C   -0.510313
    76  H    0.170157
    77  H    0.154965
    78  H    0.154358
    79  C   -0.507672
    80  H    0.147881
    81  H    0.178760
    82  H    0.159438
    83  C    0.580709
    84  O   -0.518061
    85  C   -0.203680
    86  C   -0.390610
    87  N   -0.390789
    88  C   -0.390829
    89  H    0.184993
    90  H    0.182781
    91  C   -0.463481
    92  H    0.147848
    93  C   -0.499657
    94  H    0.254225
    95  H    0.183988
    96  H    0.190050
    97  H    0.168618
    98  H    0.175686
    99  H    0.168668
   100  H    0.145113
   101  H    0.177230
   102  H    0.142794
   103  H    0.190894
   104  H    0.201701
   105  H    0.170690
 Sum of Mulliken charges =  -0.00000
 Mulliken charges with hydrogens summed into heavy atoms:
               1
     1  C    0.275516
     2  C    0.267722
     3  C    0.009254
     4  C    0.039356
     5  C   -0.008470
     6  C    0.298297
     7  C    0.236508
     8  C    0.036926
     9  C    0.058765
    10  C   -0.011854
    17  N   -0.478867
    18  N   -0.474203
    19  Ir  -0.099453
    20  O   -0.517011
    21  O   -0.513720
    22  O   -0.540473
    23  B    0.525437
    24  B    0.489464
    25  B    0.434216
    26  O   -0.519626
    27  O   -0.542307
    28  C    0.308279
    29  C    0.293694
    30  C    0.303291
    31  C    0.294363
    32  C    0.290033
    33  C    0.299700
    34  O   -0.519987
    35  C   -0.016615
    39  C   -0.031854
    43  C   -0.026612
    47  C   -0.028588
    51  C   -0.027136
    55  C   -0.005470
    59  C   -0.022152
    63  C   -0.022128
    67  C   -0.012137
    71  C   -0.030841
    75  C   -0.030833
    79  C   -0.021594
    83  C    0.580709
    84  O   -0.518061
    85  C   -0.055832
    86  C    0.237654
    87  N   -0.390789
    88  C    0.172456
    91  C    0.001656
    93  C    0.013315
 APT charges:
               1
     1  C    0.187210
     2  C    0.044896
     3  C   -0.047696
     4  C    0.106297
     5  C   -0.171606
     6  C    0.157233
     7  C    0.063079
     8  C   -0.039127
     9  C    0.116235
    10  C   -0.161574
    11  H    0.132767
    12  H    0.028882
    13  H    0.043467
    14  H    0.068931
    15  H    0.034270
    16  H    0.043109
    17  N   -0.184917
    18  N   -0.205427
    19  Ir  -0.590036
    20  O   -0.983073
    21  O   -0.972663
    22  O   -1.053877
    23  B    1.270479
    24  B    1.236508
    25  B    1.257157
    26  O   -0.979670
    27  O   -1.010489
    28  C    0.518132
    29  C    0.482543
    30  C    0.492179
    31  C    0.500162
    32  C    0.490362
    33  C    0.481582
    34  O   -0.960087
    35  C   -0.047280
    36  H    0.000728
    37  H    0.041596
    38  H   -0.033327
    39  C   -0.003806
    40  H   -0.001227
    41  H   -0.022150
    42  H   -0.002258
    43  C   -0.013119
    44  H   -0.020660
    45  H    0.006334
    46  H   -0.008668
    47  C   -0.033926
    48  H   -0.005218
    49  H    0.001465
    50  H   -0.025828
    51  C   -0.013221
    52  H   -0.018300
    53  H    0.002410
    54  H    0.001122
    55  C   -0.034995
    56  H    0.003074
    57  H    0.032678
    58  H   -0.032235
    59  C   -0.030801
    60  H   -0.005403
    61  H   -0.008168
    62  H   -0.018375
    63  C   -0.010211
    64  H    0.007625
    65  H   -0.006839
    66  H   -0.017940
    67  C   -0.047769
    68  H   -0.034195
    69  H    0.002594
    70  H    0.036833
    71  C   -0.010327
    72  H    0.000124
    73  H   -0.003009
    74  H   -0.020021
    75  C   -0.035435
    76  H    0.000419
    77  H   -0.022244
    78  H   -0.006222
    79  C   -0.006725
    80  H   -0.022915
    81  H    0.008740
    82  H   -0.009142
    83  C    0.827463
    84  O   -0.675029
    85  C    0.023358
    86  C    0.235079
    87  N   -0.691607
    88  C    0.237812
    89  H    0.041821
    90  H    0.038239
    91  C    0.040973
    92  H   -0.042207
    93  C    0.045077
    94  H    0.009403
    95  H   -0.054753
    96  H    0.042658
    97  H   -0.000542
    98  H   -0.004555
    99  H   -0.014356
   100  H   -0.017043
   101  H    0.006362
   102  H   -0.012231
   103  H    0.034254
   104  H    0.061143
   105  H   -0.040341
 Sum of APT charges =  -0.00000
 APT charges with hydrogens summed into heavy atoms:
               1
     1  C    0.187210
     2  C    0.177663
     3  C   -0.009457
     4  C    0.135179
     5  C   -0.128139
     6  C    0.157233
     7  C    0.132011
     8  C    0.002694
     9  C    0.150505
    10  C   -0.118466
    17  N   -0.184917
    18  N   -0.205427
    19  Ir  -0.590036
    20  O   -0.983073
    21  O   -0.972663
    22  O   -1.053877
    23  B    1.270479
    24  B    1.236508
    25  B    1.257157
    26  O   -0.979670
    27  O   -1.010489
    28  C    0.518132
    29  C    0.482543
    30  C    0.492179
    31  C    0.500162
    32  C    0.490362
    33  C    0.481582
    34  O   -0.960087
    35  C   -0.038283
    39  C   -0.029441
    43  C   -0.036114
    47  C   -0.063506
    51  C   -0.027989
    55  C   -0.031478
    59  C   -0.062746
    63  C   -0.027364
    67  C   -0.042536
    71  C   -0.033234
    75  C   -0.063483
    79  C   -0.030041
    83  C    0.827463
    84  O   -0.675029
    85  C   -0.018850
    86  C    0.232387
    87  N   -0.691607
    88  C    0.292867
    91  C    0.018062
    93  C    0.025624
 Electronic spatial extent (au):  <R**2>=          25038.4400
 Charge=             -0.0000 electrons
 Dipole moment (field-independent basis, Debye):
    X=              2.6441    Y=             -3.5320    Z=             -1.0681  Tot=              4.5395
 Quadrupole moment (field-independent basis, Debye-Ang):
   XX=           -300.7441   YY=           -280.1248   ZZ=           -289.1117
   XY=            -16.9319   XZ=             -6.9869   YZ=             -3.7952
 Traceless Quadrupole moment (field-independent basis, Debye-Ang):
   XX=            -10.7506   YY=              9.8687   ZZ=              0.8818
   XY=            -16.9319   XZ=             -6.9869   YZ=             -3.7952
 Octapole moment (field-independent basis, Debye-Ang**2):
  XXX=            -54.2344  YYY=            -44.4205  ZZZ=             17.1164  XYY=             30.4116
  XXY=            -82.9420  XXZ=            -38.8706  XZZ=             35.8595  YZZ=              4.8806
  YYZ=             -9.4794  XYZ=             -0.5516
 Hexadecapole moment (field-independent basis, Debye-Ang**3):
 XXXX=         -15863.2902 YYYY=          -9444.5407 ZZZZ=          -8217.9345 XXXY=           -367.8985
 XXXZ=           -236.6660 YYYX=           -248.1255 YYYZ=           -100.7090 ZZZX=           -113.7588
 ZZZY=            -13.2833 XXYY=          -4134.7667 XXZZ=          -3643.8072 YYZZ=          -2955.4671
 XXYZ=             25.2550 YYXZ=             25.4868 ZZXY=            114.9518
 N-N= 7.667144992087D+03 E-N=-2.043108002768D+04  KE= 2.114104846487D+03
  Exact polarizability:     495.202     -25.588     488.912     -42.258     -25.758     420.916
 Approx polarizability:     687.052     -32.702     733.574     -90.904     -52.607     629.903
   1 Symmetry operations used in ECPInt.
 ECPInt:  NShTT=   48205 NPrTT=  290969 LenC2=   38001 LenP2D=  117735.
 LDataN:  DoStor=T MaxTD1= 8 Len=  415
 Calling FoFJK, ICntrl=    100127 FMM=F ISym2X=0 I1Cent= 0 IOpClX= 0 NMat=1 NMatS=1 NMatT=0.
 Defaulting to unpruned grid for atomic number  77.
 Defaulting to unpruned grid for atomic number  77.
 Defaulting to unpruned grid for atomic number  77.
 Defaulting to unpruned grid for atomic number  77.
 Defaulting to unpruned grid for atomic number  77.
 Defaulting to unpruned grid for atomic number  77.
 Defaulting to unpruned grid for atomic number  77.
 Defaulting to unpruned grid for atomic number  77.
 Defaulting to unpruned grid for atomic number  77.
 Defaulting to unpruned grid for atomic number  77.
 Defaulting to unpruned grid for atomic number  77.
 Defaulting to unpruned grid for atomic number  77.
 Defaulting to unpruned grid for atomic number  77.
 Defaulting to unpruned grid for atomic number  77.
 Defaulting to unpruned grid for atomic number  77.
 Defaulting to unpruned grid for atomic number  77.
 Full mass-weighted force constant matrix:
 Low frequencies ---   -7.2352   -4.5633    0.0001    0.0005    0.0006    4.7032
 Low frequencies ---   15.0942   15.5812   17.4710
 Diagonal vibrational polarizability:
      100.7597581     147.1638896      88.8348978
 Harmonic frequencies (cm**-1), IR intensities (KM/Mole), Raman scattering
 activities (A**4/AMU), depolarization ratios for plane and unpolarized
 incident light, reduced masses (AMU), force constants (mDyne/A),
 and normal coordinates:
                      1                      2                      3
                      A                      A                      A
 Frequencies --     13.7253                15.4396                16.9906
 Red. masses --      4.7277                 4.7675                 3.6260
 Frc consts  --      0.0005                 0.0007                 0.0006
 IR Inten    --      0.4860                 0.2644                 0.0403
  Atom AN      X      Y      Z        X      Y      Z        X      Y      Z
     1   6    -0.02  -0.03  -0.00     0.01   0.01  -0.05    -0.01  -0.01  -0.02
     2   6    -0.05  -0.05  -0.04    -0.01  -0.02  -0.08    -0.01  -0.00  -0.02
     3   6    -0.08  -0.07  -0.07    -0.03  -0.03  -0.12    -0.02  -0.01  -0.03
     4   6    -0.08  -0.06  -0.07    -0.03  -0.01  -0.12    -0.03  -0.02  -0.04
     5   6    -0.04  -0.04  -0.03    -0.01   0.01  -0.09    -0.03  -0.02  -0.04
     6   6     0.01  -0.02   0.03     0.03   0.03  -0.00    -0.01  -0.01  -0.02
     7   6     0.04  -0.00   0.07     0.03   0.04   0.02     0.01   0.00   0.00
     8   6     0.07   0.01   0.10     0.06   0.07   0.07     0.01  -0.00  -0.00
     9   6     0.06   0.00   0.09     0.08   0.08   0.08    -0.00  -0.01  -0.02
    10   6     0.03  -0.01   0.06     0.07   0.06   0.05    -0.01  -0.01  -0.02
    11   1    -0.05  -0.05  -0.04    -0.00  -0.03  -0.07     0.00   0.00  -0.00
    12   1    -0.10  -0.07  -0.09    -0.05  -0.02  -0.15    -0.05  -0.02  -0.06
    13   1    -0.04  -0.04  -0.03    -0.02   0.02  -0.09    -0.04  -0.02  -0.05
    14   1     0.05   0.00   0.07     0.02   0.03   0.01     0.02   0.01   0.01
    15   1     0.07   0.01   0.12     0.11   0.10   0.13    -0.01  -0.01  -0.02
    16   1     0.03  -0.02   0.06     0.08   0.07   0.06    -0.02  -0.01  -0.03
    17   7    -0.02  -0.04  -0.01     0.01  -0.00  -0.04    -0.00  -0.00  -0.01
    18   7     0.02  -0.02   0.03     0.02   0.02  -0.02     0.00   0.00  -0.01
    19  77    -0.01  -0.02   0.00     0.00  -0.00  -0.03     0.01   0.01  -0.01
    20   8    -0.01  -0.00  -0.01     0.04   0.01   0.01    -0.03   0.00  -0.05
    21   8    -0.02  -0.01   0.01    -0.01  -0.01   0.02     0.02  -0.03   0.01
    22   8     0.02  -0.02  -0.00     0.02  -0.00  -0.07    -0.04   0.00   0.06
    23   5    -0.02  -0.02   0.01    -0.01  -0.02  -0.00     0.00   0.00  -0.00
    24   5    -0.01  -0.01  -0.00     0.03   0.00  -0.01     0.00   0.01  -0.00
    25   5     0.01  -0.02  -0.01    -0.00  -0.01  -0.03     0.01   0.01  -0.01
    26   8     0.01  -0.01  -0.01    -0.03  -0.01   0.01     0.06   0.01  -0.08
    27   8    -0.02  -0.00   0.01     0.04   0.01   0.00     0.04   0.04   0.05
    28   6    -0.01   0.01   0.01     0.06   0.02   0.02     0.04   0.06   0.05
    29   6    -0.01   0.01  -0.00     0.05   0.02   0.03     0.00   0.01  -0.01
    30   6     0.03  -0.01  -0.01    -0.00  -0.01  -0.06    -0.02   0.01   0.05
    31   6     0.02  -0.00  -0.02    -0.02  -0.01   0.00     0.02  -0.01  -0.06
    32   6    -0.03  -0.00   0.01    -0.03  -0.02   0.03     0.01  -0.03   0.02
    33   6    -0.03  -0.01   0.00    -0.05  -0.03   0.01    -0.00   0.01  -0.01
    34   8    -0.02  -0.02   0.01    -0.03  -0.03  -0.01    -0.01   0.03  -0.01
    35   6    -0.02   0.00   0.01     0.03   0.01   0.06     0.01  -0.07   0.02
    36   1    -0.01   0.00  -0.00     0.03   0.01   0.06    -0.02  -0.11  -0.02
    37   1    -0.02  -0.01   0.01     0.02   0.00   0.05     0.02  -0.10   0.05
    38   1    -0.02   0.02   0.01     0.04   0.02   0.08     0.02  -0.07   0.05
    39   6    -0.00   0.03  -0.01     0.08   0.03   0.04    -0.02   0.04  -0.04
    40   1    -0.00   0.02  -0.02     0.07   0.02   0.04    -0.05   0.00  -0.08
    41   1    -0.00   0.04  -0.00     0.09   0.03   0.05     0.00   0.05  -0.01
    42   1    -0.00   0.03  -0.02     0.09   0.03   0.02    -0.03   0.09  -0.07
    43   6    -0.02   0.02   0.03     0.06   0.02   0.05     0.08   0.04   0.12
    44   1    -0.02   0.03   0.03     0.08   0.03   0.07     0.09   0.05   0.12
    45   1    -0.02   0.01   0.04     0.04   0.02   0.07     0.08  -0.02   0.14
    46   1    -0.02   0.02   0.04     0.07   0.03   0.05     0.11   0.08   0.15
    47   6    -0.01   0.03   0.01     0.09   0.03   0.00     0.05   0.14   0.02
    48   1    -0.01   0.03   0.01     0.10   0.03  -0.01     0.07   0.17   0.06
    49   1    -0.01   0.02  -0.01     0.09   0.03  -0.02     0.02   0.16  -0.03
    50   1    -0.01   0.04   0.01     0.12   0.04   0.02     0.05   0.17   0.03
    51   6    -0.04   0.01   0.01    -0.03  -0.02   0.05     0.04  -0.05   0.02
    52   1    -0.04   0.01   0.01    -0.05  -0.02   0.06     0.04  -0.05   0.03
    53   1    -0.04  -0.00   0.00    -0.02  -0.02   0.05     0.07  -0.04   0.01
    54   1    -0.03   0.01   0.01    -0.02  -0.01   0.07     0.04  -0.08   0.04
    55   6    -0.02   0.01   0.01    -0.04  -0.02   0.04    -0.03  -0.04   0.05
    56   1    -0.02   0.01   0.01    -0.02  -0.02   0.05    -0.03  -0.08   0.07
    57   1    -0.01   0.00   0.01    -0.04  -0.02   0.02    -0.06  -0.02   0.05
    58   1    -0.02   0.01   0.01    -0.06  -0.03   0.05    -0.04  -0.05   0.05
    59   6    -0.05  -0.02  -0.01    -0.05  -0.03   0.00     0.03   0.02  -0.04
    60   1    -0.05  -0.03  -0.01    -0.05  -0.03  -0.00     0.02   0.05  -0.07
    61   1    -0.05  -0.03  -0.01    -0.04  -0.03   0.00     0.06   0.01  -0.05
    62   1    -0.06  -0.01  -0.01    -0.05  -0.03   0.01     0.04   0.02  -0.04
    63   6    -0.03  -0.00   0.00    -0.07  -0.03   0.01    -0.04   0.03  -0.00
    64   1    -0.02   0.00   0.01    -0.07  -0.03   0.02    -0.06   0.03   0.02
    65   1    -0.04  -0.01   0.00    -0.08  -0.04  -0.00    -0.04   0.06  -0.03
    66   1    -0.04   0.01   0.00    -0.08  -0.03   0.03    -0.03   0.02   0.00
    67   6     0.02   0.00  -0.02     0.02   0.02   0.04    -0.06  -0.08  -0.13
    68   1     0.02   0.01  -0.03     0.03   0.02   0.04    -0.10  -0.11  -0.13
    69   1     0.01   0.01  -0.03     0.01   0.02   0.08    -0.01  -0.11  -0.20
    70   1     0.01   0.00  -0.02     0.06   0.03   0.02    -0.10  -0.09  -0.11
    71   6     0.03   0.00  -0.02    -0.07  -0.03   0.02     0.09   0.02  -0.10
    72   1     0.04  -0.01  -0.02    -0.10  -0.05  -0.00     0.15   0.06  -0.06
    73   1     0.03   0.01  -0.03    -0.07  -0.03   0.06     0.11   0.02  -0.17
    74   1     0.04   0.00  -0.02    -0.06  -0.03   0.01     0.08   0.02  -0.08
    75   6     0.04  -0.02  -0.01    -0.05  -0.04  -0.10     0.05   0.08   0.11
    76   1     0.04  -0.02  -0.00    -0.07  -0.06  -0.08     0.11   0.11   0.09
    77   1     0.05  -0.02  -0.01    -0.07  -0.05  -0.10     0.07   0.09   0.11
    78   1     0.04  -0.03  -0.00    -0.04  -0.04  -0.14     0.02   0.09   0.19
    79   6     0.03  -0.01  -0.01     0.03   0.01  -0.08    -0.11  -0.03   0.09
    80   1     0.04  -0.00  -0.02     0.02   0.00  -0.07    -0.10  -0.03   0.07
    81   1     0.02  -0.01  -0.02     0.07   0.03  -0.06    -0.17  -0.08   0.05
    82   1     0.04  -0.02  -0.01     0.04   0.00  -0.12    -0.14  -0.01   0.17
    83   6     0.05   0.13  -0.00    -0.02  -0.02   0.08    -0.02  -0.02   0.02
    84   8     0.04   0.22   0.06     0.02  -0.03   0.12    -0.03  -0.02   0.02
    85   6     0.09   0.09  -0.09    -0.08  -0.02   0.10    -0.02  -0.03   0.01
    86   6     0.02  -0.05  -0.04    -0.06   0.04   0.00    -0.02  -0.03   0.03
    87   7     0.01   0.05   0.00    -0.02   0.01   0.03    -0.02  -0.02   0.03
    88   6    -0.04   0.07   0.09     0.02   0.01   0.02    -0.02  -0.02   0.04
    89   1     0.09   0.02   0.13     0.07   0.08   0.10     0.01   0.00   0.00
    90   1    -0.11  -0.08  -0.10    -0.04  -0.04  -0.14    -0.02  -0.01  -0.03
    91   6     0.14   0.20  -0.10    -0.07  -0.05   0.14    -0.03  -0.03  -0.00
    92   1     0.12   0.05  -0.17    -0.09   0.00   0.07    -0.02  -0.03   0.01
    93   6     0.03  -0.01  -0.06    -0.13  -0.02   0.11    -0.01  -0.04   0.01
    94   1     0.02  -0.02  -0.03    -0.04   0.04  -0.04    -0.02  -0.02   0.04
    95   1     0.01  -0.15   0.01    -0.09   0.05  -0.01    -0.01  -0.03   0.04
    96   1     0.04  -0.07  -0.15    -0.08   0.04   0.02    -0.02  -0.03   0.03
    97   1    -0.01  -0.10  -0.05    -0.13  -0.00   0.08    -0.01  -0.04   0.02
    98   1    -0.01   0.04   0.02    -0.11  -0.05   0.14    -0.01  -0.04   0.01
    99   1     0.07  -0.03  -0.13    -0.17  -0.03   0.12    -0.01  -0.04   0.00
   100   1     0.16   0.16  -0.19    -0.11  -0.05   0.15    -0.03  -0.03  -0.01
   101   1     0.12   0.22  -0.01    -0.06  -0.07   0.17    -0.02  -0.03  -0.00
   102   1     0.20   0.30  -0.12    -0.03  -0.05   0.14    -0.03  -0.02  -0.00
   103   1    -0.03   0.06   0.07     0.05   0.03  -0.03    -0.03  -0.02   0.05
   104   1    -0.03   0.16   0.14     0.07   0.00   0.06    -0.03  -0.02   0.03
   105   1    -0.10   0.01   0.15    -0.01   0.01   0.03    -0.01  -0.02   0.04
                      4                      5                      6
                      A                      A                      A
 Frequencies --     24.3217                32.1939                36.7446
 Red. masses --      4.0411                 4.5303                 4.8626
 Frc consts  --      0.0014                 0.0028                 0.0039
 IR Inten    --      0.4975                 1.4079                 0.2946
  Atom AN      X      Y      Z        X      Y      Z        X      Y      Z
     1   6    -0.04  -0.03  -0.00     0.04   0.03   0.05     0.02  -0.04   0.03
     2   6    -0.02  -0.01   0.01     0.01   0.01   0.02    -0.01  -0.03   0.02
     3   6    -0.07  -0.03  -0.02     0.07   0.04   0.08     0.02  -0.02   0.06
     4   6    -0.10  -0.05  -0.05     0.13   0.07   0.14     0.05  -0.02   0.10
     5   6    -0.08  -0.05  -0.04     0.11   0.06   0.12     0.05  -0.03   0.08
     6   6    -0.02  -0.03   0.00     0.02   0.03   0.03     0.02  -0.05   0.01
     7   6     0.00  -0.02   0.01    -0.02   0.01  -0.00     0.02  -0.06  -0.02
     8   6    -0.00  -0.04  -0.00    -0.00   0.02   0.02     0.02  -0.07  -0.03
     9   6    -0.02  -0.05  -0.01     0.03   0.04   0.05     0.02  -0.08  -0.01
    10   6    -0.03  -0.05  -0.01     0.04   0.04   0.06     0.02  -0.07   0.01
    11   1    -0.00   0.00   0.04    -0.03  -0.00  -0.02    -0.03  -0.03  -0.01
    12   1    -0.14  -0.07  -0.09     0.18   0.09   0.19     0.07  -0.01   0.14
    13   1    -0.11  -0.07  -0.07     0.15   0.08   0.16     0.08  -0.03   0.11
    14   1     0.02  -0.01   0.01    -0.04  -0.01  -0.03     0.02  -0.06  -0.03
    15   1    -0.02  -0.06  -0.02     0.04   0.06   0.07     0.02  -0.09  -0.02
    16   1    -0.04  -0.05  -0.01     0.06   0.06   0.08     0.02  -0.07   0.02
    17   7    -0.01  -0.01   0.02    -0.01   0.01  -0.00    -0.00  -0.04   0.01
    18   7    -0.00  -0.02   0.01    -0.01   0.01   0.00     0.02  -0.05  -0.00
    19  77     0.01   0.01   0.03    -0.03  -0.01  -0.02     0.00  -0.04  -0.02
    20   8    -0.02  -0.01  -0.00    -0.05  -0.02  -0.05     0.02  -0.02  -0.01
    21   8     0.06  -0.05  -0.00    -0.03  -0.01  -0.02    -0.02   0.01  -0.03
    22   8     0.02   0.01  -0.04     0.00  -0.01  -0.03     0.03  -0.03   0.02
    23   5     0.03   0.01   0.00    -0.04   0.01  -0.03    -0.02   0.00  -0.03
    24   5     0.00   0.01   0.03    -0.02  -0.01  -0.02     0.01  -0.03  -0.02
    25   5     0.00  -0.00   0.02    -0.02  -0.00  -0.01     0.02  -0.02  -0.01
    26   8    -0.03  -0.02   0.06    -0.04   0.00   0.02     0.02   0.01  -0.01
    27   8     0.02   0.02   0.05     0.01   0.01   0.02     0.01  -0.03  -0.01
    28   6    -0.00   0.02   0.03     0.02   0.03   0.03     0.04  -0.01   0.01
    29   6    -0.02  -0.01  -0.01    -0.02  -0.02  -0.02     0.03  -0.01   0.02
    30   6    -0.00  -0.02  -0.05    -0.01  -0.00  -0.02     0.04  -0.01   0.04
    31   6    -0.02  -0.02   0.03    -0.02   0.01   0.02     0.03   0.01   0.03
    32   6     0.05  -0.01  -0.01    -0.04   0.01  -0.03    -0.04   0.05  -0.04
    33   6     0.05   0.08  -0.05    -0.04   0.04  -0.04    -0.05   0.06  -0.05
    34   8     0.02   0.09  -0.01    -0.05   0.05  -0.04    -0.03   0.04  -0.04
    35   6     0.01  -0.06  -0.03    -0.01  -0.09   0.00     0.01  -0.02   0.04
    36   1     0.01  -0.08  -0.07    -0.03  -0.13  -0.04     0.01  -0.02   0.04
    37   1     0.05  -0.08   0.00    -0.00  -0.12   0.04    -0.00  -0.03   0.04
    38   1     0.01  -0.06  -0.04    -0.00  -0.08   0.03     0.02  -0.01   0.06
    39   6    -0.07  -0.01  -0.04    -0.04   0.01  -0.06     0.06  -0.00   0.02
    40   1    -0.08  -0.03  -0.07    -0.07  -0.02  -0.09     0.05  -0.00   0.03
    41   1    -0.07  -0.01  -0.05    -0.02   0.02  -0.03     0.07   0.01   0.04
    42   1    -0.09   0.03  -0.03    -0.06   0.07  -0.08     0.07   0.00   0.00
    43   6     0.03   0.00   0.05     0.06   0.02   0.11     0.04  -0.00   0.06
    44   1     0.01   0.00   0.03     0.07   0.04   0.12     0.06   0.01   0.08
    45   1     0.05  -0.03   0.05     0.05  -0.04   0.14     0.00  -0.01   0.08
    46   1     0.04   0.03   0.08     0.09   0.06   0.14     0.04  -0.00   0.05
    47   6    -0.03   0.07   0.04     0.03   0.12   0.00     0.08   0.00  -0.01
    48   1    -0.02   0.09   0.07     0.06   0.15   0.03     0.08   0.00  -0.03
    49   1    -0.05   0.08   0.03     0.00   0.13  -0.06     0.08   0.00  -0.04
    50   1    -0.05   0.07   0.02     0.04   0.15   0.01     0.11   0.02   0.01
    51   6     0.11  -0.06  -0.06    -0.02  -0.01  -0.04    -0.05   0.05  -0.06
    52   1     0.11  -0.03  -0.07    -0.02   0.01  -0.05    -0.06   0.08  -0.07
    53   1     0.15  -0.07  -0.10    -0.01  -0.01  -0.06    -0.06   0.03  -0.09
    54   1     0.10  -0.12  -0.03    -0.02  -0.03  -0.04    -0.04   0.05  -0.05
    55   6    -0.00  -0.02   0.05    -0.05   0.01   0.01    -0.03   0.07  -0.00
    56   1    -0.00  -0.08   0.08    -0.05  -0.01   0.02    -0.02   0.06   0.01
    57   1    -0.04   0.01   0.08    -0.06   0.02   0.01    -0.02   0.07   0.01
    58   1    -0.00  -0.00   0.05    -0.06   0.02   0.01    -0.04   0.10  -0.00
    59   6     0.11   0.09  -0.13    -0.01   0.05  -0.06    -0.05   0.05  -0.08
[...]
 1,0.00001131,-0.00000669,0.00000978,-0.00001129,0.00000786,0.00001152,
 0.,0.00000804,-0.00002033,-0.00000480,0.00000396,-0.00000314,0.0000207
 7,-0.00002860,-0.00518453,-0.00112447,0.00422797,0.00230003,0.00102191
 ,-0.00317042,0.00002571,0.00000274,-0.00013225,0.00299355,-0.00533567,
 0.00126870,-0.02324890,-0.01181703,0.02425365,-0.03627109,-0.05793585,
 0.03521607,-0.00001865,0.00001320,-0.00009736,0.00000120,0.00000035,-0
 .00000241,0.00004849,0.00001895,-0.00008281,0.00003368,0.00024673,-0.0
 0004688,-0.00002753,0.00016246,0.00000904,0.00031183,0.00006895,-0.000
 22408,0.00000446,0.00002257,0.00014951,-0.00120136,-0.00065177,0.00129
 057,-0.00000499,-0.00003780,-0.00010484,0.00002765,-0.00001561,0.00003
 104,0.00000028,-0.00000761,-0.00006603,-0.00001046,0.00006044,-0.00002
 049,0.00006931,-0.00003485,0.00001465,0.00001513,-0.00005553,-0.000022
 34,0.00055375,-0.00034967,-0.00169721,0.04500712,0.07016920,-0.0000029
 2,-0.00004167,0.00001970,-0.00000620,0.00000795,-0.00000239,0.00001075
 ,-0.00000178,-0.00001109,-0.00000334,-0.00001291,0.00000456,0.00000050
 ,0.00002861,-0.00001576,0.00003212,-0.00003836,-0.00001808,0.00010286,
 -0.00009552,0.00026551,-0.00010727,-0.00053066,-0.00026452,0.00002818,
 0.00004463,-0.00005968,-0.00002882,0.00001328,0.00000044,0.00000071,0.
 00000201,0.00000282,-0.00000081,0.00000444,0.00000043,0.00000197,-0.00
 000559,0.00000282,-0.00009171,0.00020564,0.00018701,-0.00000075,0.0000
 0003,0.00001199,0.00000019,0.00001965,0.00000481,0.00002578,0.00001354
 ,0.00000349,0.00000335,0.00015528,-0.00003656,-0.00000101,-0.00004427,
 0.00003461,0.00004045,-0.00001379,-0.00001325,0.00004254,0.00001732,0.
 00001780,-0.00040278,-0.00023629,-0.00016797,-0.00006861,-0.00004090,-
 0.00002505,-0.00006018,0.00001160,0.00000880,-0.00002087,0.00035946,0.
 00003068,-0.00003605,-0.00008933,-0.00004420,0.00003101,0.00000046,-0.
 00001403,-0.00001859,-0.00000039,0.00000933,-0.00001154,-0.00000494,0.
 00000386,0.00006342,-0.00012626,0.00010429,-0.00000065,0.00002946,-0.0
 0002672,-0.00001417,-0.00000100,-0.00001518,-0.00001680,-0.00001646,-0
 .00000881,0.00003535,0.00002821,0.00002869,0.00000033,0.00000242,-0.00
 000088,0.00000173,-0.00000109,0.00000071,-0.00000254,-0.00000019,0.000
 00028,0.00000264,0.00000083,-0.00000014,-0.00000091,-0.00000003,-0.000
 00220,0.00000223,-0.00000187,0.00000085,0.00000167,0.00000069,-0.00000
 103,-0.00000100,0.00000117,0.00000155,0.00000203,0.00000049,0.00000266
 ,0.00000174,0.00000022,-0.00000165,-0.00000096,0.00000122,0.00000103,-
 0.00000091,-0.00000032,0.00000077,0.00000014,-0.00000852,-0.00000124,-
 0.00000045,-0.00000210,0.00000257,-0.00000257,0.00000599,0.00000250,0.
 00000420,0.00000145,-0.00000294,0.00000231,-0.00000043,0.00000070,0.00
 000055,0.00000143,0.00000123,-0.00000096,-0.00000176,0.00000009,0.0000
 0152,0.00000007,-0.00000148,0.00000261,0.00000056,0.00000061,0.0000016
 4,0.00000031,-0.00000244,-0.00000274,0.00000238,0.00000185,0.00000131,
 -0.00000119,0.00000223,0.00000199,0.00000227,-0.00000074,0.00000055,-0
 .00000180,-0.00000167,-0.00000081,-0.00000154,0.00000064,0.00000211,0.
 00000282,0.00000134,0.00000103,0.00000234,0.00000177,-0.00000129,-0.00
 000080,0.00000025,-0.00000030,-0.00000174,-0.00000118,0.00000225,0.000
 00177,0.00000164,0.00000023,-0.00000250,-0.00000287,0.00000244,-0.0000
 0219,0.00000011,-0.00000450,-0.00000129,-0.00000195,0.00000187,0.00000
 555,-0.00000264,-0.00001310,-0.00001273,0.00000469,0.00000092,0.000000
 26,-0.00000218,-0.00000504,0.00000053,-0.00000667,0.00000179,-0.000001
 22,0.00000131,-0.00001562,-0.00001378,-0.00001373,-0.00001215,-0.00001
 417,-0.00000951,0.00001302,0.00000631,-0.00000878,0.00007088,0.0000152
 4,0.00005279,0.00001949,0.00001857,-0.00001125,-0.00000911,0.00000409,
 0.00000092,-0.00000312,-0.00000500,-0.00000321,0.00000690,-0.00002293,
 -0.00000240,0.00406491,0.00077711,-0.00126789,-0.00070786,-0.00352817,
 -0.00004043,0.00002046,-0.00003382,0.00003465,-0.00181796,0.00149530,-
 0.00034254,0.00571148,0.00634073,-0.00814590,0.12956649,0.04208277,-0.
 18134438,0.00001608,0.00011502,-0.00006523,0.00000108,0.00000147,-0.00
 000123,-0.00001185,-0.00002923,0.00003498,0.00001377,-0.00008067,0.000
 00885,0.00003866,-0.00000689,-0.00001541,0.00013407,-0.00013004,0.0001
 2535,-0.00008887,-0.00022305,0.00017944,0.00053794,0.00007246,-0.00003
 992,0.00000549,0.00000918,0.00003833,-0.00003815,0.00000348,-0.0000174
 9,-0.00002561,-0.00000441,0.00000583,-0.00000227,-0.00002886,0.0000117
 9,-0.00003194,0.00001736,-0.00000614,-0.00000095,0.00001090,0.00000525
 ,-0.00901356,-0.00438676,0.01240354,-0.14454262,-0.04780888,0.19316740
 ,0.00001573,-0.00000525,-0.00001557,0.00000293,-0.00001980,0.00000223,
 -0.00001291,0.00000429,0.00000315,0.00000927,-0.00000174,-0.00000844,0
 .00000034,-0.00001367,0.00000403,0.00005403,-0.00000795,-0.00000396,-0
 .00049306,0.00038607,-0.00011076,0.00008699,-0.00011943,0.00001445,0.0
 0006203,0.00003522,0.00000954,0.00000559,-0.00004781,0.00000565,0.0000
 0104,0.00000011,-0.00000143,-0.00000026,-0.00000039,0.00000031,-0.0000
 0136,0.00000105,-0.00000164,0.00019027,-0.00019866,0.00001800,0.000009
 43,-0.00001374,-0.00000858,0.00000123,-0.00000403,-0.00000757,0.000035
 81,0.00002401,0.00002219,0.00003601,-0.00004808,0.00007404,-0.00011916
 ,-0.00005406,-0.00011623,-0.00002944,0.00003018,0.00005676,-0.00001792
 ,-0.00000574,-0.00000106,-0.00081258,-0.00003794,0.00009028,0.00000384
 ,-0.00002838,0.00005897,0.00008490,-0.00002004,-0.00009162,0.00016437,
 0.00035003,0.00005983,-0.00009424,-0.00000285,-0.00006661,-0.00003508,
 -0.00001102,0.00005429,0.00000462,-0.00001017,-0.00002544,0.00000042,-
 0.00000403,-0.00001002,0.00014852,-0.00029838,0.00003211,-0.00001355,0
 .00000581,-0.00002755,-0.00000398,0.00000546,0.00000147,0.00000222,0.0
 0000281,0.00000291,0.00000680,0.00000830,0.00001045,-0.00000263,0.0000
 0118,0.00000459,0.00000151,-0.00000095,-0.00000109,0.00000196,0.000002
 36,0.00000002,0.,-0.00000046,0.00000014,-0.00000825,-0.00000288,-0.000
 00678,-0.00000302,-0.00000028,-0.00000160,0.00000195,0.00000422,0.0000
 0208,0.00000299,-0.00000188,0.00000908,-0.00000103,0.00000230,0.000009
 46,-0.00000191,-0.00000197,0.00000086,0.00000192,0.00000248,0.00000140
 ,-0.00000070,-0.00000017,-0.00000099,-0.00000691,-0.00001400,0.0000057
 6,0.00000009,0.00000148,0.00000066,0.00000200,0.00000536,-0.00000030,0
 .00000264,0.00000158,0.00000290,0.00000112,-0.00000041,-0.00000064,-0.
 00000023,-0.00000010,0.00000039,0.00000033,-0.00000109,-0.00000040,-0.
 00000114,0.00000045,-0.00000011,0.00000207,0.00000004,-0.00000340,-0.0
 0000072,0.00000013,-0.00000002,-0.00000009,0.00000076,0.00000241,-0.00
 000037,-0.00000034,-0.00000003,0.00000094,-0.00000080,-0.00000029,-0.0
 0000040,0.00000077,0.00000035,0.00000053,0.00000012,0.00000079,-0.0000
 0019,-0.00000025,-0.00000012,0.00000037,0.00000104,-0.00000052,0.00000
 104,-0.00000035,0.00000053,-0.00000042,0.00000064,0.00000043,-0.000000
 25,-0.00000048,0.00000058,-0.00000394,-0.00000538,-0.00000796,-0.00001
 181,0.00000726,-0.00000102,-0.00000275,0.00000264,0.00000791,-0.000000
 72,-0.00000746,-0.00000023,-0.00001368,-0.00001501,0.00000363,0.000000
 66,0.00000343,0.00000796,-0.00000616,-0.00000030,-0.00000559,-0.000001
 62,0.00000432,-0.00000365,0.00001455,0.00008719,-0.00000437,0.00000715
 ,0.00001315,0.00002891,-0.00004114,-0.00000149,-0.00001850,-0.00001492
 ,-0.00008822,0.00000928,-0.00006619,-0.00007289,-0.00000543,0.00003253
 ,0.00003216,0.00003386,-0.00004687,-0.00000377,0.00001728,0.00004484,0
 .00006566,-0.00005351,0.00129732,0.00116158,0.00039283,-0.00070992,-0.
 00042550,-0.00075029,-0.00017863,-0.00002171,-0.00000918,0.00004192,-0
 .00042695,-0.00070452,0.00056076,0.00724327,0.00591242,-0.05072888,-0.
 01494238,-0.01685677,-0.00001961,0.00000353,-0.00006325,-0.00000008,-0
 .00000108,0.00000017,0.00000252,0.00001177,-0.00007288,-0.00000524,-0.
 00000716,-0.00003066,0.00001371,0.00004537,0.00008333,0.00005958,0.000
 13152,-0.00036477,0.00020292,0.00010227,0.00010180,-0.00004067,0.00011
 537,0.00013926,0.00005126,0.00001300,-0.00002408,-0.00006370,0.0000099
 3,-0.00000913,-0.00000504,-0.00002343,-0.00004011,-0.00001980,0.000027
 33,-0.00000203,-0.00001811,-0.00000224,0.00001526,-0.00000090,-0.00000
 426,0.00000211,-0.00027799,-0.01868300,-0.02297736,0.00371305,0.014703
 92,0.01657105,0.04694957,-0.00001399,0.00003049,0.00002723,0.00001435,
 0.00003156,-0.00002600,0.00000859,-0.00000076,0.00000172,-0.00001216,0
 .00001245,0.00000271,-0.00001573,0.00000733,0.00000141,-0.00009896,0.0
 0013944,0.00003680,0.00018833,-0.00014095,0.00011255,-0.00005168,0.000
 01677,0.00005703,0.00000737,-0.00007212,0.00003980,-0.00000049,0.00008
 676,-0.00004012,0.00001577,-0.00000828,-0.00000494,0.00000259,-0.00000
 004,0.00000191,0.00000211,0.00000680,0.00000863,-0.00008332,0.00004547
 ,0.00003229,-0.00000201,0.00000305,0.00001162,0.00000238,0.00001295,0.
 00000950,-0.00004029,-0.00003948,-0.00002264,-0.00004176,-0.00011123,-
 0.00008302,-0.00002339,0.00002707,-0.00004890,-0.00006506,0.00004974,0
 .00005253,-0.00005688,-0.00001746,-0.00001876,0.00003771,0.00024021,0.
 00006015,0.00009063,0.00004026,0.00004028,0.00012645,-0.00003315,-0.00
 007111,0.00007982,-0.00032490,0.00001190,-0.00002104,0.00011953,0.0000
 0491,-0.00006027,0.00001109,0.00004521,0.00002479,-0.00000838,-0.00003
 136,0.00001278,-0.00000246,-0.00001285,-0.00001456,-0.00001626,-0.0000
 2463,-0.00000435,-0.00004851,-0.00000938,0.00001487,-0.00000341,0.0000
 1549,0.00001764,0.00000948,0.00000715,-0.00003949,-0.00001779,-0.00003
 081,-0.00000276,-0.00000122,0.00000556,-0.00000221,0.00000144,-0.00000
 170,0.00000340,0.00000205,0.00000057,-0.00000215,-0.00000091,-0.000000
 68,-0.00000731,-0.00000191,-0.00000479,-0.00000585,0.00000253,-0.00000
 201,0.00000073,0.00000318,0.00000242,0.00000412,-0.00000364,0.00000616
 ,-0.00000220,0.00000076,0.00000661,-0.00000401,-0.00000136,0.00000283,
 0.00000219,0.00000055,0.00000017,-0.00000012,0.00000215,-0.00000303,-0
 .00000328,-0.00000733,0.00000818,0.00000068,0.00000743,-0.00000394,0.0
 0000728,-0.00000185,-0.00000600,-0.00000477,-0.00000090,0.00000497,-0.
 00000268,0.00000047,-0.00000253,-0.00000075,-0.00000145,-0.00000103,0.
 00000114,0.00000213,-0.00000133,-0.00000255,0.00000007,0.00000185,-0.0
 0000301,-0.00000027,-0.00000179,-0.00000372,-0.00000106,0.00000291,0.0
 0000318,-0.00000324,-0.00000284,-0.00000142,0.00000157,-0.00000193,-0.
 00000243,-0.00000118,0.00000133,-0.00000131,0.00000140,0.00000401,0.00
 000332,0.00000141,-0.00000386,-0.00000195,-0.00000221,-0.00000195,-0.0
 0000142,-0.00000232,-0.00000118,0.00000020,0.00000193,-0.00000125,-0.0
 0000027,0.00000096,0.00000175,-0.00000170,-0.00000152,-0.00000202,0.00
 000021,0.00001194,-0.00000025,-0.00000734,0.00000477,-0.00000007,0.000
 00829,0.00000349,0.00000409,-0.00000316,-0.00001201,0.00000150,0.00000
 245,0.00001027,0.00000075,-0.00000207,-0.00000319,0.00000067,0.0000065
 5,0.00000134,0.00000134,-0.00000476,0.00000392,-0.00000299,-0.00002264
 ,-0.00000899,-0.00000690,-0.00000066,0.00000492,0.00000888,0.00000820,
 0.00000247,0.00000030,0.00000486,0.00002109,-0.00000951,-0.00000906,-0
 .00001379,-0.00000369,0.00001151,0.00000579,0.00001576,-0.00002455,-0.
 00000417,0.00000307,-0.00000629,0.00002998,-0.00003292,-0.00885690,-0.
 00120434,0.00186811,0.00205606,0.00162946,-0.00240415,0.00081846,0.000
 63954,0.00090299,0.00206392,0.00102107,-0.00255348,0.00673713,-0.03743
 028,-0.01624861,-0.01436766,-0.14313916,-0.12326183,0.00001376,-0.0000
 0155,-0.00003823,0.00000174,-0.00000145,0.00000260,-0.00001104,-0.0000
 9738,0.00021212,-0.00007465,0.00008174,-0.00003820,0.00013326,-0.00054
 800,-0.00014209,-0.00025689,-0.00019614,0.00009132,-0.00062219,0.00007
 375,0.00100452,0.00002775,0.00005151,0.00044438,-0.00006846,-0.0000343
 5,0.00001587,0.00007206,0.00002549,-0.00002270,0.00007358,0.00001080,0
 .00023558,0.00007630,-0.00009882,0.00000343,-0.00000090,0.00002906,-0.
 00003878,-0.00000004,0.00001976,-0.00001249,-0.00041047,0.00183000,0.0
 0021826,0.00161564,0.00570364,0.00571379,0.01104885,0.17153483,0.00000
 983,0.00006803,-0.00003774,0.00002334,-0.00002230,-0.00000867,-0.00002
 934,0.00000835,0.00002534,0.00001314,0.00002664,-0.00002374,-0.0000074
 1,-0.00006508,0.00003294,0.00017928,-0.00003846,-0.00004710,-0.0004357
 0,0.00020009,0.00002727,0.00012822,-0.00023423,-0.00012376,-0.00012302
 ,0.00023045,-0.00001475,-0.00006892,-0.00014606,0.00012371,0.00000959,
 -0.00000183,-0.00000189,0.00000266,-0.00000789,-0.00000008,-0.00000286
 ,0.00001263,-0.00000301,0.00031863,-0.00014157,0.00006227,0.00001540,-
 0.00000928,-0.00000842,0.00000410,-0.00001819,-0.00000147,0.00001174,-
 0.00001678,0.00001914,0.00004581,0.00012111,-0.00002044,-0.00016469,0.
 00005357,-0.00002843,-0.00013067,0.00003244,0.00010702,-0.00012644,-0.
 00005996,-0.00005699,-0.00055605,0.00013023,-0.00001296,0.00019385,0.0
 0005554,0.00012724,0.00021650,0.00000498,-0.00016624,0.00024270,0.0000
 5715,0.00008288,-0.00016074,0.00011054,-0.00007915,-0.00010951,-0.0000
 3659,0.00012000,0.00004307,-0.00001240,-0.00005949,0.00004275,0.000016
 60,-0.00003676,0.00015608,-0.00029536,0.00002628,0.00000437,-0.0000549
 9,-0.00002260,0.00002686,0.00001217,0.00004048,0.00004017,0.00004666,0
 .00002204,-0.00007860,-0.00006639,-0.00008693,-0.00000724,-0.00000450,
 0.00000861,0.00000124,0.00000170,-0.00000284,0.00000704,0.00000447,-0.
 00000069,-0.00000777,-0.00000445,0.00000199,-0.00000951,-0.00000235,-0
 .00000116,-0.00000434,0.00000336,-0.00000415,-0.00000330,0.00000082,0.
 00000604,0.00000606,-0.00000258,0.00000432,-0.00000450,0.00000113,0.00
 000888,-0.00000756,-0.00000228,0.00000528,0.00000297,0.00000197,-0.000
 00014,0.00000199,-0.00000124,-0.00000222,-0.00000542,-0.00000067,0.000
 01087,0.00000201,0.00000265,-0.00000429,0.00000423,-0.00000304,-0.0000
 0803,-0.00000618,-0.00000049,0.00001029,-0.00000457,-0.00000004,-0.000
 00375,-0.00000233,-0.00000394,-0.00000381,0.00000245,0.00000105,-0.000
 00066,-0.00000397,0.00000089,0.00000360,-0.00000293,-0.00000088,-0.000
 00763,-0.00000180,0.00000081,0.00000381,0.00000422,-0.00000221,0.00000
 407,-0.00000498,-0.00000042,-0.00000687,-0.00000266,-0.00000610,-0.000
 00152,-0.00000062,0.00000377,0.00000441,0.00000222,0.00000459,-0.00000
 488,-0.00000514,-0.00000737,-0.00000389,-0.00000358,-0.00000572,-0.000
 00437,0.00000251,0.00000209,0.00000122,0.00000191,0.00000308,0.0000022
 4,-0.00000559,-0.00000460,-0.00000468,-0.00000324,0.00000218,-0.000002
 08,-0.00001788,0.00001508,0.00000005,0.00000090,0.00000188,0.00000708,
 0.00000346,-0.00001366,-0.00000135,-0.00001133,-0.00000824,0.00000123,
 0.00000150,0.00000017,0.00000757,-0.00000355,-0.00000203,-0.00000415,-
 0.00000618,0.00001115,-0.00000496,-0.00000283,0.00007717,-0.00000085,0
 .00002437,0.00002753,0.00004015,-0.00004635,0.00000742,-0.00002009,0.0
 0002001,-0.00010175,-0.00001378,-0.00008801,-0.00005782,0.00000055,0.0
 0001826,0.00003123,0.00001941,-0.00002035,-0.00000100,0.00001547,0.000
 02375,0.00004223,-0.00004572,0.00060287,0.00149610,-0.00086343,0.00043
 955,-0.00069096,0.00113927,-0.00049770,-0.00041666,-0.00066758,-0.0005
 0609,0.00031575,0.00186457,0.00229552,0.01193513,0.01555202,-0.0156601
 6,-0.12527799,-0.20243464,-0.00001216,-0.00000987,0.00009293,-0.000001
 62,-0.00000509,0.00000357,-0.00001997,-0.00004751,-0.00004157,-0.00000
 560,-0.00009026,0.00006633,-0.00010974,0.00015098,-0.00002947,-0.00005
 466,0.00000535,-0.00041175,-0.00048444,-0.00138097,-0.00032272,-0.0001
 0686,-0.00015520,0.00002599,0.00000962,-0.00001060,-0.00003261,0.00002
 348,0.00000480,-0.00000288,0.00000634,-0.00000351,-0.00006597,-0.00000
 030,-0.00000543,0.00000709,-0.00000232,0.00001643,0.00000008,-0.000004
 21,0.00001392,0.00002776,0.00087284,-0.00672290,-0.00896413,-0.0049838
 5,-0.01299820,-0.01474955,0.01862792,0.13390582,0.20982213\\0.00000849
 ,0.00004205,-0.00000272,0.00000996,-0.00000264,-0.00000939,-0.00002024
 ,-0.00000017,-0.00000111,0.00000511,0.00000583,-0.00001342,0.00000662,
 -0.00000614,0.00001255,0.00001393,0.00001061,-0.00001199,-0.00001349,0
 .00004114,0.00002439,0.00001297,0.00001539,0.00000777,-0.00001214,-0.0
 0000188,-0.00002399,0.00001681,-0.00001548,0.00002202,-0.00000242,-0.0
 0000910,0.00000390,0.00000048,0.00000244,-0.00000542,0.00000028,-0.000
 00173,-0.00000326,0.00000868,-0.00000329,-0.00001376,0.00000193,0.0000
 0189,0.00000599,-0.00000472,0.00000542,-0.00001486,-0.00000780,-0.0000
 3951,0.00002898,0.00001546,-0.00000600,0.00003887,0.00009254,0.0000992
 0,-0.00009344,-0.00000263,0.00014077,0.00000906,0.00000826,-0.00001029
 ,-0.00009864,0.00002389,0.00004229,-0.00000525,-0.00005896,0.00002702,
 0.00010077,0.00005180,-0.00028926,0.00005436,-0.00004584,-0.00003733,0
 .00001988,-0.00001423,0.00001127,0.00002204,0.00001661,0.00017703,-0.0
 0001331,0.00007810,-0.00002790,0.00002471,-0.00008370,-0.00002800,0.00
 002506,0.00000262,-0.00002149,-0.00001019,0.00000023,0.00000951,-0.000
 00104,-0.00000008,0.00000983,0.00004184,0.00002782,0.00003475,-0.00000
 296,-0.00002135,-0.00001587,-0.00000945,-0.00003947,0.00000092,0.00000
 710,0.00000347,-0.00000132,-0.00000405,-0.00001063,0.00001058,0.000016
 88,-0.00000035,-0.00000704,0.00000160,0.00003804,0.00000932,-0.0000219
 8,0.00000448,-0.00000967,0.00000302,-0.00000238,-0.00001016,0.00000053
 ,-0.00001817,0.00000618,0.00000221,-0.00003838,-0.00002712,0.00000912,
 0.00000008,-0.00000839,0.00000113,0.00002699,0.00001355,0.00000085,0.0
 0000458,-0.00000051,-0.00000241,-0.00000110,-0.00002123,-0.00003063,0.
 00000116,-0.00000653,0.00000083,0.00000022,-0.00001213,-0.00001519,0.0
 0000783,-0.00001034,0.00000242,0.00001610,-0.00001413,0.00000313,-0.00
 000645,0.00000644,-0.00000015,0.00000043,-0.00000715,-0.00001502,-0.00
 000047,-0.00000075,0.00000440,-0.00001366,-0.00001421,0.00000025,0.000
 00246,0.00000216,-0.00002800,0.00001514,0.00001026,-0.00000165,-0.0000
 0372,0.00001450,0.00000279,-0.00002490,-0.00001841,0.00000421,-0.00000
 178,0.00001238,-0.00000546,-0.00001242,-0.00000038,-0.00001446,-0.0000
 0170,-0.00000665,-0.00000462,-0.00001380,-0.00000281,0.00000357,-0.000
 00700,0.00001603,-0.00000017,0.00000140,0.00000474,-0.00000133,-0.0000
 0294,0.00000611,0.00000293,-0.00004317,-0.00000727,0.00001740,-0.00000
 748,-0.00000961,0.00002132,-0.00000062,0.00001798,-0.00000253,0.000022
 78,0.00000904,-0.00001846,0.00000713,-0.00000074,-0.00000275,-0.000008
 04,0.00000483,0.00000361,0.00000686,-0.00000547,0.00000338,0.,0.000002
 88,0.00000854,0.00000885,0.00002255,0.00001711,0.00000079,0.00000084,0
 .00000355,0.00000570,-0.00000127,0.00000703,0.00000249,-0.00000026,-0.
 00000101,0.00000045,0.00000843,0.00001252,0.00000424,-0.00000033,0.000
 00810,0.00000480,-0.00000118,0.00000459,-0.00000477,-0.00000203,0.0000
 0629,-0.00005937,-0.00002408,-0.00014291,0.00001805,0.00003193,0.00005
 163,0.00006523,0.00003309,0.00005353,0.00020404,-0.00006463,0.00001264
 ,-0.00008346,0.00002683,0.00007179,0.00001177,0.00000061,-0.00000819,-
 0.00000357,0.00000078,-0.00000044,0.00000305,-0.00000452,-0.00000607,-
 0.00001035,-0.00002742,-0.00000524,-0.00003216,-0.00001445,-0.00000749
 ,-0.00002131,-0.00001203,0.00002616,-0.00007392,-0.00000901,-0.0000492
 5,-0.00005175,0.00000065,0.00000912,0.00003751,0.00000271,-0.00001315,
 0.00000923,-0.00000801,-0.00000247,-0.00000168,-0.00001296,-0.00000508
 ,0.00000301,-0.00000296,-0.00000237,0.00000565,0.00000205,-0.00000959,
 -0.00000714,-0.00001379,-0.00001809,-0.00001835,-0.00000277,-0.0000400
 9,-0.00002333,-0.00002123,-0.00001303,-0.00001675,-0.00002225,-0.00002
 811,0.00000756,0.00000850,0.00000820\\\@
 The archive entry for this job was punched.


 "THE TIME HAS COME", THE WALRUS SAID,
 "TO TALK OF MANY THINGS,
 OF SHOES AND SHIPS AND SEALING WAX,
 OF CABBAGES AND KINGS,
 AND WHY THE SEA IS BOILING HOT,
 AND WHETHER PIGS HAVE WINGS."
 Job cpu time:       1 days 16 hours 53 minutes 25.7 seconds.
 Elapsed time:       0 days  2 hours 36 minutes  5.0 seconds.
 File lengths (MBytes):  RWF=   7470 Int=      0 D2E=      0 Chk=     45 Scr=      1
 Normal termination of Gaussian 16 at Sun Dec  8 00:42:35 2024.
