/mnt/lustre/scratch/nvme/SLURM/9663805/usccqdma.iGgBLCBZb6
OMP_STACKSIZE=0m
GAUSS_PDEF=16
GAUSS_MDEF=65536MB
GAUSS_RDEF=SCF=Direct
 Entering Gaussian System, Link 0=g16.exe
 Initial command:
 /opt/cesga/2020/software/Core/g16/c1/l1.exe "/mnt/lustre/scratch/nvme/SLURM/9663805/usccqdma.iGgBLCBZb6/Gau-442870.inp" -scrdir="/mnt/lustre/scratch/nvme/SLURM/9663805/usccqdma.iGgBLCBZb6/"
 Default is to use a total of  16 processors:
                               16 via shared-memory
                                1 via Linda
 Entering Link 1 = /opt/cesga/2020/software/Core/g16/c1/l1.exe PID=    442896.
  
 Copyright (c) 1988-2019, Gaussian, Inc.  All Rights Reserved.
  
 This is part of the Gaussian(R) 16 program.  It is based on
 the Gaussian(R) 09 system (copyright 2009, Gaussian, Inc.),
 the Gaussian(R) 03 system (copyright 2003, Gaussian, Inc.),
 the Gaussian(R) 98 system (copyright 1998, Gaussian, Inc.),
 the Gaussian(R) 94 system (copyright 1995, Gaussian, Inc.),
 the Gaussian 92(TM) system (copyright 1992, Gaussian, Inc.),
 the Gaussian 90(TM) system (copyright 1990, Gaussian, Inc.),
 the Gaussian 88(TM) system (copyright 1988, Gaussian, Inc.),
 the Gaussian 86(TM) system (copyright 1986, Carnegie Mellon
 University), and the Gaussian 82(TM) system (copyright 1983,
 Carnegie Mellon University). Gaussian is a federally registered
 trademark of Gaussian, Inc.
  
 This software contains proprietary and confidential information,
 including trade secrets, belonging to Gaussian, Inc.
  
 This software is provided under written license and may be
 used, copied, transmitted, or stored only in accord with that
 written license.
  
 The following legend is applicable only to US Government
 contracts under FAR:
  
                    RESTRICTED RIGHTS LEGEND
  
 Use, reproduction and disclosure by the US Government is
 subject to restrictions as set forth in subparagraphs (a)
 and (c) of the Commercial Computer Software - Restricted
 Rights clause in FAR 52.227-19.
  
 Gaussian, Inc.
 340 Quinnipiac St., Bldg. 40, Wallingford CT 06492
  
  
 ---------------------------------------------------------------
 Warning -- This program may not be used in any manner that
 competes with the business of Gaussian, Inc. or will provide
 assistance to any competitor of Gaussian, Inc.  The licensee
 of this program is prohibited from giving any competitor of
 Gaussian, Inc. access to this program.  By using this program,
 the user acknowledges that Gaussian, Inc. is engaged in the
 business of creating and licensing software in the field of
 computational chemistry and represents and warrants to the
 licensee that it is not a competitor of Gaussian, Inc. and that
 it will not use this program in any manner prohibited above.
 ---------------------------------------------------------------
  

 Cite this work as:
 Gaussian 16, Revision C.01,
 M. J. Frisch, G. W. Trucks, H. B. Schlegel, G. E. Scuseria, 
 M. A. Robb, J. R. Cheeseman, G. Scalmani, V. Barone, 
 G. A. Petersson, H. Nakatsuji, X. Li, M. Caricato, A. V. Marenich, 
 J. Bloino, B. G. Janesko, R. Gomperts, B. Mennucci, H. P. Hratchian, 
 J. V. Ortiz, A. F. Izmaylov, J. L. Sonnenberg, D. Williams-Young, 
 F. Ding, F. Lipparini, F. Egidi, J. Goings, B. Peng, A. Petrone, 
 T. Henderson, D. Ranasinghe, V. G. Zakrzewski, J. Gao, N. Rega, 
 G. Zheng, W. Liang, M. Hada, M. Ehara, K. Toyota, R. Fukuda, 
 J. Hasegawa, M. Ishida, T. Nakajima, Y. Honda, O. Kitao, H. Nakai, 
 T. Vreven, K. Throssell, J. A. Montgomery, Jr., J. E. Peralta, 
 F. Ogliaro, M. J. Bearpark, J. J. Heyd, E. N. Brothers, K. N. Kudin, 
 V. N. Staroverov, T. A. Keith, R. Kobayashi, J. Normand, 
 K. Raghavachari, A. P. Rendell, J. C. Burant, S. S. Iyengar, 
 J. Tomasi, M. Cossi, J. M. Millam, M. Klene, C. Adamo, R. Cammi, 
 J. W. Ochterski, R. L. Martin, K. Morokuma, O. Farkas, 
 J. B. Foresman, and D. J. Fox, Gaussian, Inc., Wallingford CT, 2019.
 
 ******************************************
 Gaussian 16:  ES64L-G16RevC.01  3-Jul-2019
                 7-Dec-2024 
 ******************************************
 Default route: SCF=Direct
 ----------------------------------------------------
 # m06/genecp scf=tight int=ultrafine 5d freq=noraman
 ----------------------------------------------------
 1/10=4,30=1,38=1/1,3;
 2/12=2,17=6,18=5,40=1/2;
 3/5=7,8=1,11=2,16=1,17=8,25=1,30=1,71=2,74=-54,75=-5,140=1/1,2,3;
 4//1;
 5/5=2,32=2,38=5,98=1/2;
 8/6=4,10=90,11=11/1;
 11/6=1,8=1,9=11,15=111,16=1/1,2,10;
 10/6=1/2;
 6/7=2,8=2,9=2,10=2,28=1/1;
 7/8=1,10=1,25=1/1,2,3,16;
 1/10=4,30=1/3;
 99//99;
 ------
 OPT-TS
 ------
 Symbolic Z-matrix:
 Charge =  0 Multiplicity = 1
 C                     1.3474    3.47668   0.18731 
 C                    -0.57095   3.22394   1.46483 
 C                    -0.57154   4.56491   1.82046 
 C                     0.43853   5.38338   1.32877 
 C                     1.40767   4.83542   0.50219 
 C                     2.31955   2.81907  -0.70555 
 C                     2.84724   0.92953  -1.94884 
 C                     4.04684   1.4803   -2.37081 
 C                     4.39141   2.75025  -1.92238 
 C                     3.52122   3.42255  -1.07992 
 H                    -1.33184   2.5289    1.81689 
 H                     0.46557   6.44295   1.57533 
 H                     2.18724   5.46708   0.08354 
 H                     2.54271  -0.07979  -2.22831 
 H                     5.33303   3.20947  -2.21685 
 H                     3.78468   4.40427  -0.69487 
 N                     0.36635   2.69189   0.67467 
 N                     1.99983   1.58164  -1.14233 
 Ir                    0.20794   0.63432  -0.25869 
 O                    -0.97778  -1.72426  -1.79812 
 O                    -1.10154   0.23433   2.44361 
 O                     1.33814  -1.69968   1.50187 
 B                    -0.97796  -0.28238   1.15478 
 B                     0.15586  -1.10225  -1.28294 
 B                     1.56575  -0.46609   0.89747 
 O                     2.89699  -0.09686   1.06741 
 O                     1.29204  -1.83674  -1.66392 
 C                     0.87828  -2.86835  -2.57188 
 C                    -0.61166  -3.05318  -2.18064 
 C                     2.50338  -2.05957   2.2548 
 C                     3.61806  -1.24614   1.53903 
 C                    -2.26127  -0.36556   3.04086 
 C                    -2.37687  -1.7089    2.26263 
 O                    -1.82191  -1.36789   0.98723 
 C                    -1.5214   -3.5118   -3.30199 
 H                    -1.54302  -2.78791  -4.12503 
 H                    -1.20219  -4.48697  -3.69752 
 H                    -2.54662  -3.62206  -2.92346 
 C                    -0.79706  -3.93694  -0.95202 
 H                    -1.82883  -3.81433  -0.59488 
 H                    -0.62364  -4.9983   -1.17808 
 H                    -0.13029  -3.62441  -0.13464 
 C                     1.05726  -2.32481  -3.98384 
 H                     0.42798  -1.43842  -4.14579 
 H                     2.10596  -2.02774  -4.12027 
 H                     0.81498  -3.07337  -4.7503 
 C                     1.75177  -4.0887   -2.36485 
 H                     1.39784  -4.93439  -2.97223 
 H                     2.78447  -3.86559  -2.66521 
 H                     1.76504  -4.39471  -1.3122 
 C                    -2.03211  -0.50886   4.53156 
 H                    -2.86987  -1.03815   5.00855 
 H                    -1.10533  -1.05337   4.74433 
 H                    -1.9525    0.48415   4.99241 
 C                    -3.42714   0.5803    2.77701 
 H                    -3.20381   1.55387   3.23374 
 H                    -3.57015   0.74254   1.69813 
 H                    -4.36866   0.21474   3.20999 
 C                    -1.521    -2.82127   2.85371 
 H                    -1.50662  -3.6659    2.15189 
 H                    -0.48586  -2.4841    2.9812 
 H                    -1.91623  -3.17708   3.815 
 C                    -3.79324  -2.20847   2.05606 
 H                    -3.77232  -3.137     1.46924 
 H                    -4.28228  -2.42356   3.01729 
 H                    -4.40116  -1.47987   1.50709 
 C                     4.7515   -0.78728   2.43402 
 H                     5.27168  -1.64722   2.8808 
 H                     5.48219  -0.22033   1.84267 
 H                     4.39389  -0.13642   3.23938 
 C                     4.17652  -1.95112   0.3085 
 H                     4.80475  -1.23846  -0.24352 
 H                     4.79535  -2.81899   0.57523 
 H                     3.36657  -2.27298  -0.36091 
 C                     2.66669  -3.56511   2.19519 
 H                     3.59449  -3.8854    2.69139 
 H                     1.82329  -4.04934   2.7059 
 H                     2.68     -3.92217   1.15858 
 C                     2.27088  -1.60993   3.69219 
 H                     2.10655  -0.52542   3.74233 
 H                     1.37037  -2.10294   4.08192 
 H                     3.11069  -1.87513   4.34871 
 H                    -1.39152   0.75101  -0.49582 
 C                    -3.52673   1.42506  -1.27812 
 O                    -3.63396   2.5232   -0.74013 
 N                    -4.39665   0.39858  -1.01009 
 C                    -4.23821  -0.95678  -1.51743 
 C                    -1.10246   1.69798  -1.84578 
 C                    -2.45515   1.19214  -2.33878 
 C                    -2.91246   1.9364   -3.59485 
 C                    -5.58292   0.67384  -0.22792 
 H                    -5.56569   1.72653   0.06436 
 H                    -5.61771   0.05128   0.67945 
 H                    -6.48993   0.46997  -0.81666 
 H                    -3.23906  -1.35601  -1.2956 
 H                    -4.42485  -1.02192  -2.6013 
 H                    -4.97518  -1.5937   -1.01356 
 H                    -1.19546   2.74325  -1.5196 
 H                    -0.38126   1.63834  -2.67499 
 H                    -3.0273    3.0064   -3.37646 
 H                    -3.87803   1.55849  -3.96383 
 H                    -2.17323   1.82203  -4.39882 
 H                    -2.35585   0.12547  -2.57524 
 H                     4.70105   0.91261  -3.02775 
 H                    -1.35819   4.95575   2.46047 
 

 GradGradGradGradGradGradGradGradGradGradGradGradGradGradGradGradGradGrad
 Berny optimization.
 Initialization pass.
 Trust Radius=3.00D-01 FncErr=1.00D-07 GrdErr=1.00D-07 EigMax=2.50D+02 EigMin=1.00D-04
 Number of steps in this run=      2 maximum allowed number of steps=      2.
 GradGradGradGradGradGradGradGradGradGradGradGradGradGradGradGradGradGrad

 Stoichiometry    C34H57B3IrN3O7
 Framework group  C1[X(C34H57B3IrN3O7)]
 Deg. of freedom   309
 Full point group                 C1      NOp   1
 Largest Abelian subgroup         C1      NOp   1
 Largest concise Abelian subgroup C1      NOp   1
                         Standard orientation:                         
 ---------------------------------------------------------------------
 Center     Atomic      Atomic             Coordinates (Angstroms)
 Number     Number       Type             X           Y           Z
 ---------------------------------------------------------------------
      1          6           0        1.347401    3.476679    0.187310
      2          6           0       -0.570949    3.223940    1.464830
      3          6           0       -0.571539    4.564910    1.820460
      4          6           0        0.438532    5.383379    1.328770
      5          6           0        1.407672    4.835419    0.502190
      6          6           0        2.319551    2.819069   -0.705550
      7          6           0        2.847240    0.929528   -1.948840
      8          6           0        4.046840    1.480298   -2.370810
      9          6           0        4.391411    2.750248   -1.922380
     10          6           0        3.521221    3.422548   -1.079920
     11          1           0       -1.331839    2.528900    1.816890
     12          1           0        0.465572    6.442949    1.575330
     13          1           0        2.187242    5.467079    0.083540
     14          1           0        2.542709   -0.079791   -2.228310
     15          1           0        5.333031    3.209467   -2.216850
     16          1           0        3.784681    4.404268   -0.694870
     17          7           0        0.366351    2.691890    0.674670
     18          7           0        1.999830    1.581639   -1.142330
     19         77           0        0.207940    0.634320   -0.258690
     20          8           0       -0.977781   -1.724260   -1.798120
     21          8           0       -1.101540    0.234330    2.443610
     22          8           0        1.338139   -1.699681    1.501870
     23          5           0       -0.977961   -0.282380    1.154780
     24          5           0        0.155859   -1.102250   -1.282940
     25          5           0        1.565749   -0.466091    0.897470
     26          8           0        2.896989   -0.096862    1.067410
     27          8           0        1.292039   -1.836741   -1.663920
     28          6           0        0.878278   -2.868351   -2.571880
     29          6           0       -0.611662   -3.053180   -2.180640
     30          6           0        2.503378   -2.059571    2.254800
     31          6           0        3.618059   -1.246142    1.539030
     32          6           0       -2.261271   -0.365559    3.040860
     33          6           0       -2.376871   -1.708899    2.262630
     34          8           0       -1.821911   -1.367890    0.987230
     35          6           0       -1.521402   -3.511800   -3.301990
     36          1           0       -1.543022   -2.787910   -4.125030
     37          1           0       -1.202193   -4.486970   -3.697520
     38          1           0       -2.546622   -3.622059   -2.923460
     39          6           0       -0.797062   -3.936940   -0.952020
     40          1           0       -1.828832   -3.814330   -0.594880
     41          1           0       -0.623643   -4.998300   -1.178080
     42          1           0       -0.130292   -3.624410   -0.134640
     43          6           0        1.057258   -2.324811   -3.983840
     44          1           0        0.427979   -1.438421   -4.145790
     45          1           0        2.105959   -2.027741   -4.120270
     46          1           0        0.814978   -3.073371   -4.750300
     47          6           0        1.751768   -4.088701   -2.364850
     48          1           0        1.397837   -4.934391   -2.972230
     49          1           0        2.784468   -3.865592   -2.665210
     50          1           0        1.765037   -4.394711   -1.312200
     51          6           0       -2.032111   -0.508859    4.531560
     52          1           0       -2.869871   -1.038149    5.008550
     53          1           0       -1.105331   -1.053370    4.744330
     54          1           0       -1.952500    0.484151    4.992410
     55          6           0       -3.427140    0.580301    2.777010
     56          1           0       -3.203810    1.553871    3.233740
     57          1           0       -3.570150    0.742541    1.698130
     58          1           0       -4.368660    0.214742    3.209990
     59          6           0       -1.521002   -2.821270    2.853710
     60          1           0       -1.506622   -3.665900    2.151890
     61          1           0       -0.485862   -2.484100    2.981200
     62          1           0       -1.916232   -3.177079    3.815000
     63          6           0       -3.793242   -2.208469    2.056060
     64          1           0       -3.772322   -3.136999    1.469240
     65          1           0       -4.282282   -2.423558    3.017290
     66          1           0       -4.401161   -1.479868    1.507090
     67          6           0        4.751499   -0.787282    2.434020
     68          1           0        5.271679   -1.647223    2.880800
     69          1           0        5.482189   -0.220333    1.842670
     70          1           0        4.393889   -0.136422    3.239380
     71          6           0        4.176519   -1.951122    0.308500
     72          1           0        4.804749   -1.238462   -0.243520
     73          1           0        4.795348   -2.818992    0.575230
     74          1           0        3.366568   -2.272982   -0.360910
     75          6           0        2.666688   -3.565112    2.195190
     76          1           0        3.594488   -3.885402    2.691390
     77          1           0        1.823288   -4.049341    2.705900
     78          1           0        2.679998   -3.922172    1.158580
     79          6           0        2.270879   -1.609931    3.692190
     80          1           0        2.106549   -0.525421    3.742330
     81          1           0        1.370368   -2.102941    4.081920
     82          1           0        3.110689   -1.875132    4.348710
     83          1           0       -1.391520    0.751010   -0.495820
     84          6           0       -3.526730    1.425061   -1.278120
     85          8           0       -3.633959    2.523201   -0.740130
     86          7           0       -4.396650    0.398582   -1.010090
     87          6           0       -4.238211   -0.956778   -1.517430
     88          6           0       -1.102460    1.697980   -1.845780
     89          6           0       -2.455150    1.192141   -2.338780
     90          6           0       -2.912460    1.936401   -3.594850
     91          6           0       -5.582920    0.673842   -0.227920
     92          1           0       -5.565690    1.726532    0.064360
     93          1           0       -5.617711    0.051282    0.679450
     94          1           0       -6.489930    0.469973   -0.816660
     95          1           0       -3.239061   -1.356009   -1.295600
     96          1           0       -4.424851   -1.021918   -2.601300
     97          1           0       -4.975181   -1.593698   -1.013560
     98          1           0       -1.195459    2.743250   -1.519600
     99          1           0       -0.381260    1.638340   -2.674990
    100          1           0       -3.027299    3.006401   -3.376460
    101          1           0       -3.878030    1.558491   -3.963830
    102          1           0       -2.173230    1.822031   -4.398820
    103          1           0       -2.355851    0.125471   -2.575240
    104          1           0        4.701050    0.912608   -3.027750
    105          1           0       -1.358188    4.955750    2.460470
 ---------------------------------------------------------------------
 Rotational constants (GHZ):           0.0732117           0.0661947           0.0587604
 General basis read from cards:  (5D, 7F)
 ======================================================================================================
                                       Pseudopotential Parameters
 ======================================================================================================
  Center     Atomic      Valence      Angular      Power
  Number     Number     Electrons     Momentum     of R      Exponent        Coefficient   SO-Coeffient
 ======================================================================================================
    1          6
                                   No pseudopotential on this center.
    2          6
                                   No pseudopotential on this center.
    3          6
                                   No pseudopotential on this center.
    4          6
                                   No pseudopotential on this center.
    5          6
                                   No pseudopotential on this center.
    6          6
                                   No pseudopotential on this center.
    7          6
                                   No pseudopotential on this center.
    8          6
                                   No pseudopotential on this center.
    9          6
                                   No pseudopotential on this center.
   10          6
                                   No pseudopotential on this center.
   11          1
                                   No pseudopotential on this center.
   12          1
                                   No pseudopotential on this center.
   13          1
                                   No pseudopotential on this center.
   14          1
                                   No pseudopotential on this center.
   15          1
                                   No pseudopotential on this center.
   16          1
                                   No pseudopotential on this center.
   17          7
                                   No pseudopotential on this center.
   18          7
                                   No pseudopotential on this center.
   19         77           17
                                      G and up 
                                                     1      823.5880147       -0.15780140    0.00000000
                                                     2      364.6613336    -1517.52704460    0.00000000
                                                     2       55.7082801     -316.53065290    0.00000000
                                                     2       12.0464544      -91.88809410    0.00000000
                                                     2        3.5120610       -9.22417730    0.00000000
                                      S - G
                                                     0      188.0490770        3.15780140    0.00000000
                                                     1      340.4194712       26.83225770    0.00000000
                                                     2      128.2373673      800.42500070    0.00000000
                                                     2       33.8644961      369.40506830    0.00000000
                                                     2        4.7560005      242.41718990    0.00000000
                                                     2        3.9649974     -118.21732820    0.00000000
                                      P - G
                                                     0      289.7291139        2.15780140    0.00000000
                                                     1       87.4633789       61.96786100    0.00000000
                                                     2       30.4363766      269.05819860    0.00000000
                                                     2        4.0553412      231.16547930    0.00000000
                                                     2        3.5525341     -133.69526670    0.00000000
                                      D - G
                                                     0      136.4017106        3.15780140    0.00000000
                                                     1       95.0776925       45.93498030    0.00000000
                                                     2       49.2258410      359.03446680    0.00000000
                                                     2       15.0874145      176.47401190    0.00000000
                                                     2        4.0405764       54.51552860    0.00000000
                                      F - G
                                                     0      127.3507908        3.95461970    0.00000000
                                                     1       66.2364374       52.97736550    0.00000000
                                                     2       34.4299229      274.86433830    0.00000000
                                                     2       10.1995721      137.20473380    0.00000000
                                                     2        2.5409702       14.86333050    0.00000000
   20          8
                                   No pseudopotential on this center.
   21          8
                                   No pseudopotential on this center.
   22          8
                                   No pseudopotential on this center.
   23          5
                                   No pseudopotential on this center.
   24          5
                                   No pseudopotential on this center.
   25          5
                                   No pseudopotential on this center.
   26          8
                                   No pseudopotential on this center.
   27          8
                                   No pseudopotential on this center.
   28          6
                                   No pseudopotential on this center.
   29          6
                                   No pseudopotential on this center.
   30          6
                                   No pseudopotential on this center.
   31          6
                                   No pseudopotential on this center.
   32          6
                                   No pseudopotential on this center.
   33          6
                                   No pseudopotential on this center.
   34          8
                                   No pseudopotential on this center.
   35          6
                                   No pseudopotential on this center.
   36          1
                                   No pseudopotential on this center.
   37          1
                                   No pseudopotential on this center.
   38          1
                                   No pseudopotential on this center.
   39          6
                                   No pseudopotential on this center.
   40          1
                                   No pseudopotential on this center.
   41          1
                                   No pseudopotential on this center.
   42          1
                                   No pseudopotential on this center.
   43          6
                                   No pseudopotential on this center.
   44          1
                                   No pseudopotential on this center.
   45          1
                                   No pseudopotential on this center.
   46          1
                                   No pseudopotential on this center.
   47          6
                                   No pseudopotential on this center.
   48          1
                                   No pseudopotential on this center.
   49          1
                                   No pseudopotential on this center.
   50          1
                                   No pseudopotential on this center.
   51          6
                                   No pseudopotential on this center.
   52          1
                                   No pseudopotential on this center.
   53          1
                                   No pseudopotential on this center.
   54          1
                                   No pseudopotential on this center.
   55          6
                                   No pseudopotential on this center.
   56          1
                                   No pseudopotential on this center.
   57          1
                                   No pseudopotential on this center.
   58          1
                                   No pseudopotential on this center.
   59          6
                                   No pseudopotential on this center.
   60          1
                                   No pseudopotential on this center.
   61          1
                                   No pseudopotential on this center.
   62          1
                                   No pseudopotential on this center.
   63          6
                                   No pseudopotential on this center.
   64          1
                                   No pseudopotential on this center.
   65          1
                                   No pseudopotential on this center.
   66          1
                                   No pseudopotential on this center.
   67          6
                                   No pseudopotential on this center.
   68          1
                                   No pseudopotential on this center.
   69          1
                                   No pseudopotential on this center.
   70          1
                                   No pseudopotential on this center.
   71          6
                                   No pseudopotential on this center.
   72          1
                                   No pseudopotential on this center.
   73          1
                                   No pseudopotential on this center.
   74          1
                                   No pseudopotential on this center.
   75          6
                                   No pseudopotential on this center.
   76          1
                                   No pseudopotential on this center.
   77          1
                                   No pseudopotential on this center.
   78          1
                                   No pseudopotential on this center.
   79          6
                                   No pseudopotential on this center.
   80          1
                                   No pseudopotential on this center.
   81          1
                                   No pseudopotential on this center.
   82          1
                                   No pseudopotential on this center.
   83          1
                                   No pseudopotential on this center.
   84          6
                                   No pseudopotential on this center.
   85          8
                                   No pseudopotential on this center.
   86          7
                                   No pseudopotential on this center.
   87          6
                                   No pseudopotential on this center.
   88          6
                                   No pseudopotential on this center.
   89          6
                                   No pseudopotential on this center.
   90          6
                                   No pseudopotential on this center.
   91          6
                                   No pseudopotential on this center.
   92          1
                                   No pseudopotential on this center.
   93          1
                                   No pseudopotential on this center.
   94          1
                                   No pseudopotential on this center.
   95          1
                                   No pseudopotential on this center.
   96          1
                                   No pseudopotential on this center.
   97          1
                                   No pseudopotential on this center.
   98          1
                                   No pseudopotential on this center.
   99          1
                                   No pseudopotential on this center.
  100          1
                                   No pseudopotential on this center.
  101          1
                                   No pseudopotential on this center.
  102          1
                                   No pseudopotential on this center.
  103          1
                                   No pseudopotential on this center.
  104          1
                                   No pseudopotential on this center.
  105          1
                                   No pseudopotential on this center.
 ======================================================================================================
 There are   843 symmetry adapted cartesian basis functions of A   symmetry.
 There are   794 symmetry adapted basis functions of A   symmetry.
   794 basis functions,  1587 primitive gaussians,   843 cartesian basis functions
   185 alpha electrons      185 beta electrons
       nuclear repulsion energy      7779.9557262336 Hartrees.
 NAtoms=  105 NActive=  105 NUniq=  105 SFac= 1.00D+00 NAtFMM=   60 NAOKFM=T Big=T
 Integral buffers will be    131072 words long.
 Raffenetti 2 integral format.
 Two-electron integral symmetry is turned on.
 One-electron integrals computed using PRISM.
   1 Symmetry operations used in ECPInt.
 ECPInt:  NShTT=   48205 NPrTT=  290969 LenC2=   38666 LenP2D=  120339.
 LDataN:  DoStor=T MaxTD1= 6 Len=  172
 NBasis=   794 RedAO= T EigKep=  5.56D-04  NBF=   794
 NBsUse=   794 1.00D-06 EigRej= -1.00D+00 NBFU=   794
 Defaulting to unpruned grid for atomic number  77.
 ExpMin= 2.90D-02 ExpMax= 5.48D+03 ExpMxC= 8.25D+02 IAcc=3 IRadAn=         5 AccDes= 0.00D+00
 Harris functional with IExCor= 1009 and IRadAn=       5 diagonalized for initial guess.
 HarFok:  IExCor= 1009 AccDes= 0.00D+00 IRadAn=         5 IDoV= 1 UseB2=F ITyADJ=14
 ICtDFT=  3500011 ScaDFX=  1.000000  1.000000  1.000000  1.000000
 Defaulting to unpruned grid for atomic number  77.
 FoFCou: FMM=F IPFlag=           0 FMFlag=      100000 FMFlg1=        2001
         NFxFlg=           0 DoJE=T BraDBF=F KetDBF=T FulRan=T
         wScrn=  0.000000 ICntrl=       500 IOpCl=  0 I1Cent=   200000004 NGrid=           0
         NMat0=    1 NMatS0=      1 NMatT0=    0 NMatD0=    1 NMtDS0=    0 NMtDT0=    0
 Petite list used in FoFCou.
 Requested convergence on RMS density matrix=1.00D-08 within 128 cycles.
 Requested convergence on MAX density matrix=1.00D-06.
 Requested convergence on             energy=1.00D-06.
 No special actions if energy rises.
 Defaulting to unpruned grid for atomic number  77.
 Defaulting to unpruned grid for atomic number  77.
 Defaulting to unpruned grid for atomic number  77.
 Defaulting to unpruned grid for atomic number  77.
 Defaulting to unpruned grid for atomic number  77.
 Defaulting to unpruned grid for atomic number  77.
 Defaulting to unpruned grid for atomic number  77.
 Defaulting to unpruned grid for atomic number  77.
 Defaulting to unpruned grid for atomic number  77.
 Defaulting to unpruned grid for atomic number  77.
 Defaulting to unpruned grid for atomic number  77.
 Defaulting to unpruned grid for atomic number  77.
 Defaulting to unpruned grid for atomic number  77.
 Defaulting to unpruned grid for atomic number  77.
 Defaulting to unpruned grid for atomic number  77.
 Defaulting to unpruned grid for atomic number  77.
 SCF Done:  E(RM06) =  -2198.94176474     A.U. after   15 cycles
            NFock= 15  Conv=0.44D-08     -V/T= 2.0403
 DoSCS=F DFT=T ScalE2(SS,OS)=  1.000000  1.000000
 Range of M.O.s used for correlation:     1   794
 NBasis=   794 NAE=   185 NBE=   185 NFC=     0 NFV=     0
 NROrb=    794 NOA=   185 NOB=   185 NVA=   609 NVB=   609

 **** Warning!!: The largest alpha MO coefficient is  0.14049054D+02

   1 Symmetry operations used in ECPInt.
 ECPInt:  NShTT=   48205 NPrTT=  290969 LenC2=   38666 LenP2D=  120339.
 LDataN:  DoStor=T MaxTD1= 7 Len=  274
 Number of processors reduced to   8 by ecpmxn.
 Symmetrizing basis deriv contribution to polar:
 IMax=3 JMax=2 DiffMx= 0.00D+00
 G2DrvN: will do   106 centers at a time, making    1 passes.
 Calling FoFCou, ICntrl=  3107 FMM=T I1Cent=   0 AccDes= 0.00D+00.
 Defaulting to unpruned grid for atomic number  77.
 Defaulting to unpruned grid for atomic number  77.
 Defaulting to unpruned grid for atomic number  77.
 Defaulting to unpruned grid for atomic number  77.
 Defaulting to unpruned grid for atomic number  77.
 Defaulting to unpruned grid for atomic number  77.
 Defaulting to unpruned grid for atomic number  77.
 Defaulting to unpruned grid for atomic number  77.
 Defaulting to unpruned grid for atomic number  77.
 Defaulting to unpruned grid for atomic number  77.
 Defaulting to unpruned grid for atomic number  77.
 Defaulting to unpruned grid for atomic number  77.
 Defaulting to unpruned grid for atomic number  77.
 Defaulting to unpruned grid for atomic number  77.
 Defaulting to unpruned grid for atomic number  77.
 Defaulting to unpruned grid for atomic number  77.
 End of G2Drv F.D. properties file   721 does not exist.
 End of G2Drv F.D. properties file   722 does not exist.
 End of G2Drv F.D. properties file   788 does not exist.
          IDoAtm=11111111111111111111111111111111111111111111111111
          IDoAtm=11111111111111111111111111111111111111111111111111
          IDoAtm=11111
          Differentiating once with respect to electric field.
                with respect to dipole field.
          Differentiating once with respect to nuclear coordinates.
 Defaulting to unpruned grid for atomic number  77.
 CalDSu exits because no D1Ps are significant.
 Defaulting to unpruned grid for atomic number  77.
 Defaulting to unpruned grid for atomic number  77.
 Defaulting to unpruned grid for atomic number  77.
 Defaulting to unpruned grid for atomic number  77.
 Defaulting to unpruned grid for atomic number  77.
 Defaulting to unpruned grid for atomic number  77.
 Defaulting to unpruned grid for atomic number  77.
 Defaulting to unpruned grid for atomic number  77.
 Defaulting to unpruned grid for atomic number  77.
 Defaulting to unpruned grid for atomic number  77.
 Defaulting to unpruned grid for atomic number  77.
 Defaulting to unpruned grid for atomic number  77.
 Defaulting to unpruned grid for atomic number  77.
 Defaulting to unpruned grid for atomic number  77.
 Defaulting to unpruned grid for atomic number  77.
 Defaulting to unpruned grid for atomic number  77.
          There are   318 degrees of freedom in the 1st order CPHF.  IDoFFX=6 NUNeed=     3.
    315 vectors produced by pass  0 Test12= 1.13D-13 1.00D-09 XBig12= 4.51D+02 6.71D+00.
 AX will form    72 AO Fock derivatives at one time.
    315 vectors produced by pass  1 Test12= 1.13D-13 1.00D-09 XBig12= 6.59D+01 1.17D+00.
    315 vectors produced by pass  2 Test12= 1.13D-13 1.00D-09 XBig12= 7.57D-01 7.78D-02.
    315 vectors produced by pass  3 Test12= 1.13D-13 1.00D-09 XBig12= 4.34D-03 5.49D-03.
    315 vectors produced by pass  4 Test12= 1.13D-13 1.00D-09 XBig12= 1.25D-05 3.21D-04.
    273 vectors produced by pass  5 Test12= 1.13D-13 1.00D-09 XBig12= 2.40D-08 1.24D-05.
     66 vectors produced by pass  6 Test12= 1.13D-13 1.00D-09 XBig12= 3.41D-11 3.41D-07.
      3 vectors produced by pass  7 Test12= 1.13D-13 1.00D-09 XBig12= 4.56D-14 1.19D-08.
 InvSVY:  IOpt=1 It=  1 EMax= 2.13D-14
 Solved reduced A of dimension  1917 with   318 vectors.
 Isotropic polarizability for W=    0.000000      475.95 Bohr**3.
 End of Minotr F.D. properties file   721 does not exist.
 End of Minotr F.D. properties file   722 does not exist.
 End of Minotr F.D. properties file   788 does not exist.
 Hyperfine terms turned off by default for NAtoms > 100.

 **********************************************************************

            Population analysis using the SCF Density.

 **********************************************************************

 Orbital symmetries:
       Occupied  (A) (A) (A) (A) (A) (A) (A) (A) (A) (A) (A) (A)
                 (A) (A) (A) (A) (A) (A) (A) (A) (A) (A) (A) (A)
                 (A) (A) (A) (A) (A) (A) (A) (A) (A) (A) (A) (A)
                 (A) (A) (A) (A) (A) (A) (A) (A) (A) (A) (A) (A)
                 (A) (A) (A) (A) (A) (A) (A) (A) (A) (A) (A) (A)
                 (A) (A) (A) (A) (A) (A) (A) (A) (A) (A) (A) (A)
                 (A) (A) (A) (A) (A) (A) (A) (A) (A) (A) (A) (A)
                 (A) (A) (A) (A) (A) (A) (A) (A) (A) (A) (A) (A)
                 (A) (A) (A) (A) (A) (A) (A) (A) (A) (A) (A) (A)
                 (A) (A) (A) (A) (A) (A) (A) (A) (A) (A) (A) (A)
                 (A) (A) (A) (A) (A) (A) (A) (A) (A) (A) (A) (A)
                 (A) (A) (A) (A) (A) (A) (A) (A) (A) (A) (A) (A)
                 (A) (A) (A) (A) (A) (A) (A) (A) (A) (A) (A) (A)
                 (A) (A) (A) (A) (A) (A) (A) (A) (A) (A) (A) (A)
                 (A) (A) (A) (A) (A) (A) (A) (A) (A) (A) (A) (A)
                 (A) (A) (A) (A) (A)
       Virtual   (A) (A) (A) (A) (A) (A) (A) (A) (A) (A) (A) (A)
                 (A) (A) (A) (A) (A) (A) (A) (A) (A) (A) (A) (A)
                 (A) (A) (A) (A) (A) (A) (A) (A) (A) (A) (A) (A)
                 (A) (A) (A) (A) (A) (A) (A) (A) (A) (A) (A) (A)
                 (A) (A) (A) (A) (A) (A) (A) (A) (A) (A) (A) (A)
                 (A) (A) (A) (A) (A) (A) (A) (A) (A) (A) (A) (A)
                 (A) (A) (A) (A) (A) (A) (A) (A) (A) (A) (A) (A)
                 (A) (A) (A) (A) (A) (A) (A) (A) (A) (A) (A) (A)
                 (A) (A) (A) (A) (A) (A) (A) (A) (A) (A) (A) (A)
                 (A) (A) (A) (A) (A) (A) (A) (A) (A) (A) (A) (A)
                 (A) (A) (A) (A) (A) (A) (A) (A) (A) (A) (A) (A)
                 (A) (A) (A) (A) (A) (A) (A) (A) (A) (A) (A) (A)
                 (A) (A) (A) (A) (A) (A) (A) (A) (A) (A) (A) (A)
                 (A) (A) (A) (A) (A) (A) (A) (A) (A) (A) (A) (A)
                 (A) (A) (A) (A) (A) (A) (A) (A) (A) (A) (A) (A)
                 (A) (A) (A) (A) (A) (A) (A) (A) (A) (A) (A) (A)
                 (A) (A) (A) (A) (A) (A) (A) (A) (A) (A) (A) (A)
                 (A) (A) (A) (A) (A) (A) (A) (A) (A) (A) (A) (A)
                 (A) (A) (A) (A) (A) (A) (A) (A) (A) (A) (A) (A)
                 (A) (A) (A) (A) (A) (A) (A) (A) (A) (A) (A) (A)
                 (A) (A) (A) (A) (A) (A) (A) (A) (A) (A) (A) (A)
                 (A) (A) (A) (A) (A) (A) (A) (A) (A) (A) (A) (A)
                 (A) (A) (A) (A) (A) (A) (A) (A) (A) (A) (A) (A)
                 (A) (A) (A) (A) (A) (A) (A) (A) (A) (A) (A) (A)
                 (A) (A) (A) (A) (A) (A) (A) (A) (A) (A) (A) (A)
                 (A) (A) (A) (A) (A) (A) (A) (A) (A) (A) (A) (A)
                 (A) (A) (A) (A) (A) (A) (A) (A) (A) (A) (A) (A)
                 (A) (A) (A) (A) (A) (A) (A) (A) (A) (A) (A) (A)
                 (A) (A) (A) (A) (A) (A) (A) (A) (A) (A) (A) (A)
                 (A) (A) (A) (A) (A) (A) (A) (A) (A) (A) (A) (A)
                 (A) (A) (A) (A) (A) (A) (A) (A) (A) (A) (A) (A)
                 (A) (A) (A) (A) (A) (A) (A) (A) (A) (A) (A) (A)
                 (A) (A) (A) (A) (A) (A) (A) (A) (A) (A) (A) (A)
                 (A) (A) (A) (A) (A) (A) (A) (A) (A) (A) (A) (A)
                 (A) (A) (A) (A) (A) (A) (A) (A) (A) (A) (A) (A)
                 (A) (A) (A) (A) (A) (A) (A) (A) (A) (A) (A) (A)
                 (A) (A) (A) (A) (A) (A) (A) (A) (A) (A) (A) (A)
                 (A) (A) (A) (A) (A) (A) (A) (A) (A) (A) (A) (A)
                 (A) (A) (A) (A) (A) (A) (A) (A) (A) (A) (A) (A)
                 (A) (A) (A) (A) (A) (A) (A) (A) (A) (A) (A) (A)
                 (A) (A) (A) (A) (A) (A) (A) (A) (A) (A) (A) (A)
                 (A) (A) (A) (A) (A) (A) (A) (A) (A) (A) (A) (A)
                 (A) (A) (A) (A) (A) (A) (A) (A) (A) (A) (A) (A)
                 (A) (A) (A) (A) (A) (A) (A) (A) (A) (A) (A) (A)
                 (A) (A) (A) (A) (A) (A) (A) (A) (A) (A) (A) (A)
                 (A) (A) (A) (A) (A) (A) (A) (A) (A) (A) (A) (A)
                 (A) (A) (A) (A) (A) (A) (A) (A) (A) (A) (A) (A)
                 (A) (A) (A) (A) (A) (A) (A) (A) (A) (A) (A) (A)
                 (A) (A) (A) (A) (A) (A) (A) (A) (A) (A) (A) (A)
                 (A) (A) (A) (A) (A) (A) (A) (A) (A) (A) (A) (A)
                 (A) (A) (A) (A) (A) (A) (A) (A) (A)
 The electronic state is 1-A.
 Alpha  occ. eigenvalues --  -19.20197 -19.19713 -19.19656 -19.19647 -19.19552
 Alpha  occ. eigenvalues --  -19.19436 -19.16599 -14.44601 -14.43639 -14.40876
 Alpha  occ. eigenvalues --  -10.32037 -10.31528 -10.31165 -10.29662 -10.29232
 Alpha  occ. eigenvalues --  -10.29223 -10.28932 -10.28859 -10.28822 -10.28774
 Alpha  occ. eigenvalues --  -10.28693 -10.28431 -10.28039 -10.27744 -10.27527
 Alpha  occ. eigenvalues --  -10.27214 -10.26820 -10.25455 -10.25403 -10.22882
 Alpha  occ. eigenvalues --  -10.22769 -10.22724 -10.22687 -10.22488 -10.22468
 Alpha  occ. eigenvalues --  -10.22452 -10.22380 -10.22047 -10.22046 -10.22007
 Alpha  occ. eigenvalues --  -10.21696 -10.21678 -10.21541 -10.21355  -6.80099
 Alpha  occ. eigenvalues --   -6.78910  -6.78885  -3.63010  -2.05568  -2.05023
 Alpha  occ. eigenvalues --   -2.04123  -1.05990  -1.05669  -1.05518  -1.02479
 Alpha  occ. eigenvalues --   -0.99320  -0.98945  -0.98664  -0.98611  -0.96748
 Alpha  occ. eigenvalues --   -0.92296  -0.83726  -0.82813  -0.82114  -0.80202
 Alpha  occ. eigenvalues --   -0.79942  -0.79833  -0.78333  -0.76688  -0.74683
 Alpha  occ. eigenvalues --   -0.74395  -0.74346  -0.70933  -0.70293  -0.70005
 Alpha  occ. eigenvalues --   -0.69896  -0.68260  -0.68086  -0.67538  -0.67281
 Alpha  occ. eigenvalues --   -0.67200  -0.67123  -0.66117  -0.63898  -0.62867
 Alpha  occ. eigenvalues --   -0.61642  -0.61103  -0.60830  -0.58689  -0.56905
 Alpha  occ. eigenvalues --   -0.54483  -0.54245  -0.54002  -0.53362  -0.52972
 Alpha  occ. eigenvalues --   -0.52680  -0.52647  -0.52547  -0.51613  -0.50189
 Alpha  occ. eigenvalues --   -0.49169  -0.48828  -0.47467  -0.47256  -0.46881
 Alpha  occ. eigenvalues --   -0.46663  -0.46201  -0.46073  -0.45966  -0.45913
 Alpha  occ. eigenvalues --   -0.45549  -0.45418  -0.45139  -0.44899  -0.44337
 Alpha  occ. eigenvalues --   -0.44107  -0.43849  -0.43537  -0.43500  -0.43123
 Alpha  occ. eigenvalues --   -0.42938  -0.42668  -0.41949  -0.41186  -0.40675
 Alpha  occ. eigenvalues --   -0.40218  -0.40128  -0.40024  -0.39913  -0.39736
 Alpha  occ. eigenvalues --   -0.39705  -0.39520  -0.39384  -0.39317  -0.39267
 Alpha  occ. eigenvalues --   -0.39021  -0.38798  -0.38611  -0.38561  -0.38318
 Alpha  occ. eigenvalues --   -0.38065  -0.37552  -0.37184  -0.37141  -0.36989
 Alpha  occ. eigenvalues --   -0.36767  -0.36401  -0.36298  -0.36221  -0.36055
 Alpha  occ. eigenvalues --   -0.35795  -0.35553  -0.35254  -0.35141  -0.34800
 Alpha  occ. eigenvalues --   -0.34663  -0.34527  -0.34390  -0.34234  -0.32806
 Alpha  occ. eigenvalues --   -0.32560  -0.32451  -0.32373  -0.31967  -0.31582
 Alpha  occ. eigenvalues --   -0.31306  -0.31106  -0.31068  -0.30693  -0.30390
 Alpha  occ. eigenvalues --   -0.30096  -0.29649  -0.29398  -0.27461  -0.26789
 Alpha  occ. eigenvalues --   -0.26121  -0.25965  -0.25659  -0.25321  -0.24847
 Alpha  occ. eigenvalues --   -0.23650  -0.22974  -0.22471  -0.21949  -0.19137
 Alpha virt. eigenvalues --   -0.06220  -0.03112  -0.02338   0.02299   0.02942
 Alpha virt. eigenvalues --    0.03883   0.05184   0.05634   0.06856   0.07220
 Alpha virt. eigenvalues --    0.08433   0.08927   0.09544   0.09615   0.10378
 Alpha virt. eigenvalues --    0.10748   0.11234   0.11509   0.11694   0.12003
 Alpha virt. eigenvalues --    0.12201   0.12629   0.13006   0.13488   0.13672
 Alpha virt. eigenvalues --    0.13809   0.14213   0.14442   0.14754   0.14911
 Alpha virt. eigenvalues --    0.15155   0.15365   0.15536   0.15658   0.15972
 Alpha virt. eigenvalues --    0.16084   0.16400   0.16420   0.16573   0.16955
 Alpha virt. eigenvalues --    0.17305   0.17524   0.17665   0.17712   0.17977
 Alpha virt. eigenvalues --    0.18244   0.18366   0.18416   0.18956   0.19165
 Alpha virt. eigenvalues --    0.19340   0.19433   0.19604   0.19777   0.19911
 Alpha virt. eigenvalues --    0.20099   0.20231   0.20387   0.20541   0.20906
 Alpha virt. eigenvalues --    0.20980   0.21079   0.21197   0.21481   0.21903
 Alpha virt. eigenvalues --    0.21988   0.22253   0.22635   0.22770   0.23053
 Alpha virt. eigenvalues --    0.23206   0.23742   0.24204   0.24478   0.24646
 Alpha virt. eigenvalues --    0.24847   0.25162   0.25474   0.25613   0.25785
 Alpha virt. eigenvalues --    0.26051   0.26463   0.26639   0.26865   0.27109
 Alpha virt. eigenvalues --    0.27265   0.27554   0.27921   0.28208   0.28601
 Alpha virt. eigenvalues --    0.28859   0.29093   0.29361   0.29452   0.29737
 Alpha virt. eigenvalues --    0.30094   0.30473   0.30778   0.31011   0.31880
 Alpha virt. eigenvalues --    0.32224   0.32760   0.33404   0.34353   0.35468
 Alpha virt. eigenvalues --    0.35546   0.35922   0.36373   0.37095   0.37872
 Alpha virt. eigenvalues --    0.38465   0.39511   0.39867   0.41117   0.41462
 Alpha virt. eigenvalues --    0.43143   0.43522   0.45954   0.46702   0.47407
 Alpha virt. eigenvalues --    0.48276   0.48778   0.49536   0.50139   0.50609
 Alpha virt. eigenvalues --    0.50763   0.51190   0.51526   0.51717   0.51940
 Alpha virt. eigenvalues --    0.52499   0.52947   0.53106   0.53612   0.54064
 Alpha virt. eigenvalues --    0.54540   0.55035   0.55224   0.55927   0.56020
 Alpha virt. eigenvalues --    0.56270   0.56590   0.56755   0.56987   0.57336
 Alpha virt. eigenvalues --    0.57778   0.58140   0.58566   0.58748   0.58808
 Alpha virt. eigenvalues --    0.59129   0.59317   0.59570   0.59854   0.59923
 Alpha virt. eigenvalues --    0.60305   0.60442   0.60947   0.61119   0.61358
 Alpha virt. eigenvalues --    0.61494   0.61845   0.62130   0.62420   0.62740
 Alpha virt. eigenvalues --    0.63417   0.63518   0.64110   0.64229   0.64724
 Alpha virt. eigenvalues --    0.65198   0.66175   0.66393   0.66763   0.66956
 Alpha virt. eigenvalues --    0.67079   0.67488   0.67685   0.68015   0.68386
 Alpha virt. eigenvalues --    0.68769   0.69469   0.69702   0.70086   0.70547
 Alpha virt. eigenvalues --    0.70818   0.70981   0.71494   0.71654   0.72159
 Alpha virt. eigenvalues --    0.72988   0.73135   0.73445   0.73516   0.73722
 Alpha virt. eigenvalues --    0.74032   0.74236   0.74961   0.75015   0.75363
 Alpha virt. eigenvalues --    0.75564   0.76364   0.76586   0.77157   0.77883
 Alpha virt. eigenvalues --    0.78064   0.78430   0.78684   0.79410   0.79543
 Alpha virt. eigenvalues --    0.79755   0.80367   0.80596   0.80943   0.81538
 Alpha virt. eigenvalues --    0.81855   0.82260   0.82554   0.82915   0.83041
 Alpha virt. eigenvalues --    0.83399   0.83929   0.84248   0.84513   0.84687
 Alpha virt. eigenvalues --    0.84816   0.85058   0.85303   0.85456   0.85585
 Alpha virt. eigenvalues --    0.86051   0.86323   0.86496   0.86804   0.87135
 Alpha virt. eigenvalues --    0.87316   0.87630   0.87946   0.87970   0.88076
 Alpha virt. eigenvalues --    0.88690   0.88769   0.89072   0.89160   0.89658
 Alpha virt. eigenvalues --    0.89930   0.90035   0.90340   0.90363   0.90733
 Alpha virt. eigenvalues --    0.91102   0.91453   0.91619   0.91815   0.91928
 Alpha virt. eigenvalues --    0.92362   0.93028   0.93103   0.93452   0.93575
 Alpha virt. eigenvalues --    0.94205   0.94444   0.94643   0.94934   0.95126
 Alpha virt. eigenvalues --    0.95448   0.96190   0.96292   0.96523   0.97000
 Alpha virt. eigenvalues --    0.97215   0.97729   0.97939   0.98543   0.98681
 Alpha virt. eigenvalues --    0.99056   0.99249   0.99694   0.99966   1.00276
 Alpha virt. eigenvalues --    1.00949   1.01613   1.02417   1.02744   1.02931
 Alpha virt. eigenvalues --    1.03484   1.04211   1.04557   1.04956   1.05989
 Alpha virt. eigenvalues --    1.06063   1.06826   1.07023   1.07681   1.08668
 Alpha virt. eigenvalues --    1.08745   1.09241   1.09615   1.10400   1.10691
 Alpha virt. eigenvalues --    1.11909   1.12319   1.13139   1.13300   1.13946
 Alpha virt. eigenvalues --    1.14375   1.14916   1.15563   1.16132   1.16604
 Alpha virt. eigenvalues --    1.17667   1.18584   1.18990   1.19981   1.20154
 Alpha virt. eigenvalues --    1.20434   1.21166   1.21550   1.22139   1.22512
 Alpha virt. eigenvalues --    1.22952   1.23699   1.23984   1.24577   1.25115
 Alpha virt. eigenvalues --    1.25939   1.26925   1.27563   1.28865   1.29355
 Alpha virt. eigenvalues --    1.29699   1.30802   1.31718   1.32089   1.32959
 Alpha virt. eigenvalues --    1.33138   1.34156   1.34554   1.35214   1.36173
 Alpha virt. eigenvalues --    1.37056   1.37972   1.39394   1.39769   1.40800
 Alpha virt. eigenvalues --    1.41277   1.41575   1.42104   1.42500   1.43124
 Alpha virt. eigenvalues --    1.43344   1.43716   1.45160   1.45384   1.45829
 Alpha virt. eigenvalues --    1.46202   1.46835   1.47159   1.47427   1.47718
 Alpha virt. eigenvalues --    1.48307   1.48891   1.49557   1.50037   1.51094
 Alpha virt. eigenvalues --    1.51643   1.52060   1.52446   1.54124   1.55083
 Alpha virt. eigenvalues --    1.55776   1.56580   1.58039   1.58115   1.59498
 Alpha virt. eigenvalues --    1.60132   1.61552   1.61906   1.62017   1.63192
 Alpha virt. eigenvalues --    1.63969   1.64700   1.65241   1.65478   1.65974
 Alpha virt. eigenvalues --    1.67030   1.67438   1.67824   1.68488   1.69075
 Alpha virt. eigenvalues --    1.69957   1.70663   1.71007   1.71413   1.72495
 Alpha virt. eigenvalues --    1.73320   1.74076   1.75299   1.76751   1.77306
 Alpha virt. eigenvalues --    1.77547   1.77837   1.78464   1.78880   1.79260
 Alpha virt. eigenvalues --    1.79723   1.80202   1.81531   1.82127   1.82432
 Alpha virt. eigenvalues --    1.82806   1.83588   1.83960   1.84452   1.85338
 Alpha virt. eigenvalues --    1.85410   1.86088   1.86454   1.86694   1.87261
 Alpha virt. eigenvalues --    1.87937   1.88223   1.88397   1.89187   1.89254
 Alpha virt. eigenvalues --    1.91062   1.91413   1.91732   1.91904   1.91996
 Alpha virt. eigenvalues --    1.92170   1.92356   1.92791   1.92824   1.93479
 Alpha virt. eigenvalues --    1.93992   1.94059   1.94242   1.94315   1.94892
 Alpha virt. eigenvalues --    1.95345   1.95714   1.95779   1.96481   1.97344
 Alpha virt. eigenvalues --    1.98320   1.98790   1.99405   2.00061   2.00758
 Alpha virt. eigenvalues --    2.01344   2.01675   2.02529   2.02860   2.03021
 Alpha virt. eigenvalues --    2.03654   2.03875   2.04365   2.04559   2.05838
 Alpha virt. eigenvalues --    2.06250   2.06643   2.06975   2.07406   2.07570
 Alpha virt. eigenvalues --    2.08062   2.08576   2.08815   2.09325   2.09535
 Alpha virt. eigenvalues --    2.10357   2.10971   2.11263   2.11739   2.12109
 Alpha virt. eigenvalues --    2.12877   2.13177   2.13421   2.13890   2.14778
 Alpha virt. eigenvalues --    2.15025   2.15403   2.15715   2.16182   2.16466
 Alpha virt. eigenvalues --    2.16785   2.17692   2.18144   2.18703   2.18913
 Alpha virt. eigenvalues --    2.19014   2.19247   2.19556   2.19700   2.19849
 Alpha virt. eigenvalues --    2.20259   2.20513   2.20754   2.21202   2.21560
 Alpha virt. eigenvalues --    2.22502   2.22854   2.23073   2.23192   2.23834
 Alpha virt. eigenvalues --    2.24412   2.25062   2.25261   2.25841   2.26160
 Alpha virt. eigenvalues --    2.26451   2.27014   2.27405   2.27814   2.28259
 Alpha virt. eigenvalues --    2.28654   2.29408   2.29802   2.31649   2.31857
 Alpha virt. eigenvalues --    2.31919   2.32214   2.33010   2.33124   2.33703
 Alpha virt. eigenvalues --    2.34263   2.34561   2.35264   2.36627   2.36998
 Alpha virt. eigenvalues --    2.38535   2.39190   2.39670   2.40391   2.40578
 Alpha virt. eigenvalues --    2.41076   2.42672   2.42884   2.45113   2.46296
 Alpha virt. eigenvalues --    2.46567   2.47961   2.48369   2.49337   2.49486
 Alpha virt. eigenvalues --    2.50054   2.50119   2.50498   2.51221   2.53748
 Alpha virt. eigenvalues --    2.54558   2.57018   2.57253   2.59395   2.60179
 Alpha virt. eigenvalues --    2.60764   2.61073   2.61608   2.62804   2.63345
 Alpha virt. eigenvalues --    2.64255   2.64647   2.65358   2.65626   2.67063
 Alpha virt. eigenvalues --    2.67527   2.69232   2.70088   2.70923   2.72211
 Alpha virt. eigenvalues --    2.77737   2.78274   2.78463   2.78690   2.79289
 Alpha virt. eigenvalues --    2.79444   2.79984   2.80366   2.81132   2.81527
 Alpha virt. eigenvalues --    2.81710   2.82355   2.83127   2.84054   2.84392
 Alpha virt. eigenvalues --    2.85683   2.86294   2.87758   2.92027   2.93070
 Alpha virt. eigenvalues --    2.95401   2.95824   2.96159   2.96821   2.97947
 Alpha virt. eigenvalues --    2.99131   2.99698   3.05434   3.06542   3.07731
 Alpha virt. eigenvalues --    3.09194   3.12011   3.13137   3.14437   3.20575
 Alpha virt. eigenvalues --    3.24698   3.30887   3.44724  14.02827
          Condensed to atoms (all electrons):
 Mulliken charges:
               1
     1  C    0.284992
     2  C    0.085374
     3  C   -0.169362
     4  C   -0.141496
     5  C   -0.183305
     6  C    0.321469
     7  C    0.063814
     8  C   -0.175419
     9  C   -0.139569
    10  C   -0.181879
    11  H    0.197953
    12  H    0.178888
    13  H    0.167296
    14  H    0.211646
    15  H    0.179426
    16  H    0.169552
    17  N   -0.470033
    18  N   -0.506887
    19  Ir  -0.275711
    20  O   -0.519288
    21  O   -0.525719
    22  O   -0.529674
    23  B    0.535754
    24  B    0.500081
    25  B    0.527114
    26  O   -0.520702
    27  O   -0.540945
    28  C    0.305856
    29  C    0.290708
    30  C    0.296514
    31  C    0.293718
    32  C    0.294851
    33  C    0.295329
    34  O   -0.502790
    35  C   -0.514659
    36  H    0.168013
    37  H    0.150837
    38  H    0.164515
    39  C   -0.488798
    40  H    0.157620
    41  H    0.140635
    42  H    0.181748
    43  C   -0.513169
    44  H    0.175863
    45  H    0.158060
    46  H    0.154427
    47  C   -0.511522
    48  H    0.152404
    49  H    0.162143
    50  H    0.172468
    51  C   -0.506904
    52  H    0.148191
    53  H    0.170264
    54  H    0.165479
    55  C   -0.506086
    56  H    0.160109
    57  H    0.179718
    58  H    0.147168
    59  C   -0.498231
    60  H    0.158938
    61  H    0.177895
    62  H    0.141302
    63  C   -0.500162
    64  H    0.162765
    65  H    0.149463
    66  H    0.153371
    67  C   -0.511739
    68  H    0.147476
    69  H    0.165182
    70  H    0.172090
    71  C   -0.510968
    72  H    0.154175
    73  H    0.144100
    74  H    0.185577
    75  C   -0.504692
    76  H    0.148840
    77  H    0.163956
    78  H    0.165888
    79  C   -0.508574
    80  H    0.184840
    81  H    0.157773
    82  H    0.148998
    83  H    0.158498
    84  C    0.569638
    85  O   -0.526180
    86  N   -0.384605
    87  C   -0.381321
    88  C   -0.396843
    89  C   -0.160709
    90  C   -0.504951
    91  C   -0.379374
    92  H    0.215259
    93  H    0.155667
    94  H    0.167109
    95  H    0.230564
    96  H    0.160692
    97  H    0.161945
    98  H    0.190652
    99  H    0.172435
   100  H    0.179790
   101  H    0.151134
   102  H    0.159886
   103  H    0.164589
   104  H    0.178796
   105  H    0.182985
 Sum of Mulliken charges =  -0.00000
 Mulliken charges with hydrogens summed into heavy atoms:
               1
     1  C    0.284992
     2  C    0.283327
     3  C    0.013623
     4  C    0.037391
     5  C   -0.016009
     6  C    0.321469
     7  C    0.275461
     8  C    0.003377
     9  C    0.039857
    10  C   -0.012327
    17  N   -0.470033
    18  N   -0.506887
    19  Ir  -0.117213
    20  O   -0.519288
    21  O   -0.525719
    22  O   -0.529674
    23  B    0.535754
    24  B    0.500081
    25  B    0.527114
    26  O   -0.520702
    27  O   -0.540945
    28  C    0.305856
    29  C    0.290708
    30  C    0.296514
    31  C    0.293718
    32  C    0.294851
    33  C    0.295329
    34  O   -0.502790
    35  C   -0.031294
    39  C   -0.008795
    43  C   -0.024820
    47  C   -0.024507
    51  C   -0.022970
    55  C   -0.019091
    59  C   -0.020096
    63  C   -0.034563
    67  C   -0.026991
    71  C   -0.027117
    75  C   -0.026008
    79  C   -0.016964
    84  C    0.569638
    85  O   -0.526180
    86  N   -0.384605
    87  C    0.171880
    88  C   -0.033756
    89  C    0.003880
    90  C   -0.014141
    91  C    0.158660
 APT charges:
               1
     1  C    0.152868
     2  C    0.055316
     3  C   -0.029642
     4  C    0.080481
     5  C   -0.160516
     6  C    0.183635
     7  C    0.039768
     8  C   -0.047601
     9  C    0.091449
    10  C   -0.172280
    11  H    0.087075
    12  H    0.025274
    13  H    0.036246
    14  H    0.114089
    15  H    0.027148
    16  H    0.038755
    17  N   -0.138826
    18  N   -0.080175
    19  Ir  -1.073815
    20  O   -0.982686
    21  O   -0.943896
    22  O   -0.960842
    23  B    1.277141
    24  B    1.238225
    25  B    1.234411
    26  O   -0.929286
    27  O   -1.007702
    28  C    0.493740
    29  C    0.475992
    30  C    0.470782
    31  C    0.458947
    32  C    0.477354
    33  C    0.456475
    34  O   -0.927054
    35  C   -0.005148
    36  H    0.000746
    37  H   -0.017043
    38  H   -0.004705
    39  C   -0.014969
    40  H   -0.000166
    41  H   -0.031705
    42  H    0.017929
    43  C   -0.036238
    44  H    0.004385
    45  H   -0.002949
    46  H   -0.020230
    47  C   -0.008218
    48  H   -0.018545
    49  H   -0.001656
    50  H    0.001461
    51  C   -0.004608
    52  H   -0.017571
    53  H    0.000465
    54  H   -0.003862
    55  C   -0.024438
    56  H   -0.005055
    57  H    0.000272
    58  H   -0.018939
    59  C   -0.030621
    60  H   -0.000432
    61  H    0.030081
    62  H   -0.028717
    63  C    0.017836
    64  H   -0.004585
    65  H   -0.020688
    66  H   -0.012480
    67  C   -0.006808
    68  H   -0.018463
    69  H   -0.005719
    70  H    0.002086
    71  C   -0.040974
    72  H   -0.012207
    73  H   -0.024261
    74  H    0.032938
    75  C    0.005374
    76  H   -0.022211
    77  H    0.001366
    78  H   -0.007620
    79  C   -0.031746
    80  H    0.009139
    81  H   -0.000133
    82  H   -0.027119
    83  H    0.260789
    84  C    0.897323
    85  O   -0.735036
    86  N   -0.730799
    87  C    0.245716
    88  C    0.156285
    89  C    0.013492
    90  C    0.008030
    91  C    0.294411
    92  H    0.074992
    93  H   -0.040936
    94  H   -0.055866
    95  H    0.074583
    96  H   -0.040639
    97  H   -0.000330
    98  H   -0.038152
    99  H   -0.060349
   100  H    0.014431
   101  H   -0.052623
   102  H   -0.011085
   103  H   -0.005024
   104  H    0.037511
   105  H    0.039175
 Sum of APT charges =  -0.00000
 APT charges with hydrogens summed into heavy atoms:
               1
     1  C    0.152868
     2  C    0.142391
     3  C    0.009533
     4  C    0.105755
     5  C   -0.124270
     6  C    0.183635
     7  C    0.153857
     8  C   -0.010090
     9  C    0.118598
    10  C   -0.133525
    17  N   -0.138826
    18  N   -0.080175
    19  Ir  -0.813026
    20  O   -0.982686
    21  O   -0.943896
    22  O   -0.960842
    23  B    1.277141
    24  B    1.238225
    25  B    1.234411
    26  O   -0.929286
    27  O   -1.007702
    28  C    0.493740
    29  C    0.475992
    30  C    0.470782
    31  C    0.458947
    32  C    0.477354
    33  C    0.456475
    34  O   -0.927054
    35  C   -0.026150
    39  C   -0.028911
    43  C   -0.055032
    47  C   -0.026958
    51  C   -0.025577
    55  C   -0.048160
    59  C   -0.029689
    63  C   -0.019917
    67  C   -0.028904
    71  C   -0.044503
    75  C   -0.023092
    79  C   -0.049859
    84  C    0.897323
    85  O   -0.735036
    86  N   -0.730799
    87  C    0.279330
    88  C    0.057784
    89  C    0.008468
    90  C   -0.041246
    91  C    0.272602
 Electronic spatial extent (au):  <R**2>=          23806.1015
 Charge=             -0.0000 electrons
 Dipole moment (field-independent basis, Debye):
    X=              3.6210    Y=              1.3065    Z=             -0.3783  Tot=              3.8681
 Quadrupole moment (field-independent basis, Debye-Ang):
   XX=           -282.8183   YY=           -277.0663   ZZ=           -292.9117
   XY=             20.1856   XZ=            -12.8851   YZ=              7.2017
 Traceless Quadrupole moment (field-independent basis, Debye-Ang):
   XX=              1.4471   YY=              7.1991   ZZ=             -8.6463
   XY=             20.1856   XZ=            -12.8851   YZ=              7.2017
 Octapole moment (field-independent basis, Debye-Ang**2):
  XXX=             57.6342  YYY=            188.0649  ZZZ=            -26.4811  XYY=             88.3248
  XXY=             17.2247  XXZ=            -33.5848  XZZ=              8.0676  YZZ=              4.4578
  YYZ=             22.4480  XYZ=            -38.1475
 Hexadecapole moment (field-independent basis, Debye-Ang**3):
 XXXX=         -12187.7775 YYYY=          -9845.0386 ZZZZ=          -8500.6712 XXXY=            339.8015
 XXXZ=           -209.2008 YYYX=            317.6023 YYYZ=            312.2611 ZZZX=            -79.8356
 ZZZY=             32.4293 XXYY=          -3845.3899 XXZZ=          -3380.1296 YYZZ=          -3115.5088
 XXYZ=           -105.1884 YYXZ=            -99.3117 ZZXY=            -21.2559
 N-N= 7.779955726234D+03 E-N=-2.065664081688D+04  KE= 2.113818540726D+03
  Exact polarizability:     504.354      17.891     498.569     -38.419      21.872     424.941
 Approx polarizability:     713.940      24.323     731.261     -74.190      51.167     615.310
   1 Symmetry operations used in ECPInt.
 ECPInt:  NShTT=   48205 NPrTT=  290969 LenC2=   38666 LenP2D=  120339.
 LDataN:  DoStor=T MaxTD1= 8 Len=  415
 Calling FoFJK, ICntrl=    100127 FMM=F ISym2X=0 I1Cent= 0 IOpClX= 0 NMat=1 NMatS=1 NMatT=0.
 Defaulting to unpruned grid for atomic number  77.
 Defaulting to unpruned grid for atomic number  77.
 Defaulting to unpruned grid for atomic number  77.
 Defaulting to unpruned grid for atomic number  77.
 Defaulting to unpruned grid for atomic number  77.
 Defaulting to unpruned grid for atomic number  77.
 Defaulting to unpruned grid for atomic number  77.
 Defaulting to unpruned grid for atomic number  77.
 Defaulting to unpruned grid for atomic number  77.
 Defaulting to unpruned grid for atomic number  77.
 Defaulting to unpruned grid for atomic number  77.
 Defaulting to unpruned grid for atomic number  77.
 Defaulting to unpruned grid for atomic number  77.
 Defaulting to unpruned grid for atomic number  77.
 Defaulting to unpruned grid for atomic number  77.
 Defaulting to unpruned grid for atomic number  77.
 Full mass-weighted force constant matrix:
 Low frequencies --- -780.8474  -10.6399   -7.7414   -2.2865   -0.0004   -0.0002
 Low frequencies ---    0.0005   17.8124   20.2714
 ******    1 imaginary frequencies (negative Signs) ****** 
 Diagonal vibrational polarizability:
      151.7511957      74.6468761     216.4625858
 Harmonic frequencies (cm**-1), IR intensities (KM/Mole), Raman scattering
 activities (A**4/AMU), depolarization ratios for plane and unpolarized
 incident light, reduced masses (AMU), force constants (mDyne/A),
 and normal coordinates:
                      1                      2                      3
                      A                      A                      A
 Frequencies --   -780.8463                16.4163                20.1186
 Red. masses --      1.1307                 3.6725                 5.0067
 Frc consts  --      0.4062                 0.0006                 0.0012
 IR Inten    --    340.3103                 0.2873                 0.8887
  Atom AN      X      Y      Z        X      Y      Z        X      Y      Z
     1   6    -0.00  -0.00   0.00     0.02  -0.00   0.03     0.08  -0.04   0.07
     2   6    -0.00   0.00  -0.00     0.01   0.01   0.01     0.05  -0.01   0.04
     3   6     0.00  -0.00  -0.00     0.03   0.00   0.04     0.13  -0.03   0.13
     4   6     0.00   0.00  -0.00     0.05  -0.01   0.06     0.19  -0.06   0.20
     5   6    -0.00   0.00   0.00     0.05  -0.01   0.06     0.16  -0.06   0.16
     6   6    -0.01  -0.00   0.00     0.02  -0.00   0.02     0.04  -0.04   0.03
     7   6    -0.00  -0.00   0.00    -0.01   0.01  -0.01    -0.05  -0.00  -0.06
     8   6    -0.00  -0.00  -0.00    -0.00   0.01  -0.01    -0.03  -0.03  -0.05
     9   6    -0.00  -0.00   0.00     0.01  -0.00   0.01     0.03  -0.07   0.01
    10   6    -0.00  -0.00  -0.00     0.02  -0.01   0.03     0.06  -0.07   0.04
    11   1    -0.00   0.01  -0.00    -0.01   0.02  -0.01     0.01   0.01  -0.01
    12   1     0.00   0.00  -0.00     0.07  -0.01   0.09     0.26  -0.08   0.28
    13   1    -0.00   0.00  -0.00     0.06  -0.02   0.08     0.20  -0.08   0.21
    14   1     0.00  -0.00   0.00    -0.02   0.02  -0.03    -0.09   0.02  -0.10
    15   1    -0.00  -0.00   0.00     0.01  -0.01   0.02     0.05  -0.09   0.02
    16   1    -0.01  -0.00  -0.00     0.03  -0.02   0.04     0.11  -0.10   0.09
    17   7    -0.00  -0.00  -0.00     0.00   0.01   0.01     0.03  -0.01   0.01
    18   7    -0.00  -0.02   0.02     0.00   0.01   0.01    -0.01  -0.00  -0.03
    19  77    -0.01   0.01  -0.01    -0.00   0.01   0.01    -0.02   0.01  -0.03
    20   8     0.00  -0.00   0.00    -0.00  -0.04   0.08    -0.01  -0.00  -0.03
    21   8     0.00   0.00  -0.00    -0.01   0.04   0.00    -0.02   0.01  -0.02
    22   8     0.00  -0.00   0.00    -0.01  -0.02  -0.02     0.01   0.04  -0.00
    23   5     0.01  -0.01   0.02    -0.01   0.02   0.01    -0.01   0.01  -0.02
    24   5    -0.00   0.00  -0.01     0.00   0.01   0.01    -0.02   0.00  -0.02
    25   5     0.00  -0.01   0.01    -0.01  -0.00  -0.00    -0.01   0.03  -0.02
    26   8     0.00  -0.00   0.00    -0.00  -0.01   0.01    -0.01   0.06  -0.02
    27   8     0.00   0.00   0.00     0.01   0.05  -0.06    -0.02  -0.01   0.01
    28   6     0.00  -0.00  -0.00    -0.01   0.05  -0.05    -0.00  -0.03   0.03
    29   6     0.00  -0.00   0.00     0.03  -0.02   0.06    -0.01  -0.01   0.00
    30   6     0.00  -0.00   0.00    -0.01  -0.04  -0.03     0.02   0.07   0.01
    31   6     0.00  -0.00   0.00    -0.01  -0.02  -0.02     0.00   0.08  -0.00
    32   6    -0.00   0.00   0.00    -0.03   0.05   0.00    -0.01   0.00  -0.03
    33   6     0.00  -0.00   0.00    -0.02   0.04   0.02     0.00  -0.00  -0.02
    34   8     0.01  -0.00   0.00    -0.01   0.02   0.02     0.00  -0.00  -0.02
    35   6     0.00   0.00   0.00    -0.03  -0.06   0.12     0.01  -0.03  -0.01
    36   1    -0.00   0.00   0.00    -0.13  -0.05   0.13     0.03  -0.04  -0.02
    37   1     0.00   0.00   0.00    -0.01  -0.04   0.09     0.02  -0.04   0.02
    38   1     0.00   0.00   0.00     0.00  -0.12   0.20     0.00  -0.02  -0.03
    39   6     0.00  -0.00   0.00     0.16  -0.03   0.07    -0.05   0.01   0.01
    40   1    -0.00  -0.00  -0.00     0.18  -0.07   0.15    -0.06   0.02  -0.02
    41   1    -0.00  -0.00   0.00     0.18  -0.02   0.06    -0.04   0.01   0.04
    42   1     0.00  -0.00   0.00     0.21  -0.00   0.02    -0.07   0.03   0.03
    43   6    -0.00   0.00   0.00    -0.14   0.07  -0.05     0.03  -0.07   0.02
    44   1     0.00   0.00   0.00    -0.19   0.05   0.00     0.04  -0.07  -0.02
    45   1     0.00  -0.00  -0.00    -0.16   0.13  -0.12     0.04  -0.08   0.03
    46   1    -0.00  -0.00   0.00    -0.15   0.07  -0.05     0.04  -0.09   0.04
    47   6     0.00   0.00   0.00     0.06   0.08  -0.13    -0.01  -0.03   0.09
    48   1    -0.00   0.00   0.00     0.05   0.08  -0.13    -0.00  -0.04   0.11
    49   1     0.00  -0.00  -0.00     0.03   0.13  -0.19    -0.01  -0.04   0.10
    50   1     0.00  -0.00   0.00     0.13   0.05  -0.14    -0.03   0.01   0.10
    51   6     0.00   0.00  -0.00    -0.05   0.08   0.01    -0.02   0.02  -0.02
    52   1     0.00   0.00  -0.00    -0.05   0.09   0.00    -0.02   0.01  -0.02
    53   1     0.00   0.00  -0.00    -0.05   0.08   0.03    -0.01   0.03  -0.01
    54   1    -0.00   0.00  -0.00    -0.05   0.09  -0.01    -0.03   0.02  -0.03
    55   6     0.00   0.00  -0.00    -0.02   0.05  -0.03    -0.02  -0.01  -0.04
    56   1    -0.00   0.00  -0.00    -0.02   0.06  -0.05    -0.04  -0.00  -0.05
    57   1    -0.00   0.00   0.00    -0.01   0.03  -0.04    -0.02  -0.02  -0.04
    58   1     0.00  -0.00  -0.00    -0.02   0.06  -0.04    -0.02  -0.02  -0.04
    59   6     0.00  -0.00   0.00    -0.03   0.05   0.05     0.02   0.01  -0.01
    60   1    -0.00  -0.00   0.00    -0.02   0.04   0.06     0.03   0.01  -0.00
    61   1     0.00  -0.00   0.00    -0.03   0.05   0.06     0.01   0.03  -0.01
    62   1    -0.00   0.00   0.00    -0.04   0.07   0.05     0.02   0.01  -0.01
    63   6     0.00   0.00  -0.00    -0.02   0.04   0.01     0.01  -0.02  -0.01
    64   1     0.00   0.00   0.00    -0.01   0.03   0.03     0.02  -0.03  -0.00
    65   1     0.00   0.00  -0.00    -0.03   0.05   0.01     0.01  -0.02  -0.01
    66   1     0.00   0.00  -0.00    -0.01   0.03  -0.01     0.00  -0.04  -0.02
    67   6     0.00  -0.00   0.00    -0.00  -0.04  -0.01    -0.00   0.11  -0.01
    68   1     0.00   0.00   0.00    -0.00  -0.05  -0.03     0.01   0.12   0.00
    69   1    -0.00  -0.00   0.00    -0.00  -0.03   0.00    -0.01   0.11  -0.02
    70   1    -0.00   0.00   0.00    -0.00  -0.06   0.00    -0.01   0.11  -0.02
    71   6     0.00  -0.00   0.00    -0.01   0.00  -0.03     0.01   0.07   0.01
    72   1     0.00  -0.00   0.00    -0.00   0.01  -0.02     0.00   0.07  -0.00
    73   1     0.00  -0.00  -0.00    -0.01  -0.00  -0.05     0.03   0.08   0.02
    74   1     0.00  -0.00   0.00    -0.01   0.02  -0.04     0.02   0.05   0.01
    75   6     0.00  -0.00   0.00    -0.01  -0.03  -0.07     0.04   0.07   0.04
    76   1     0.00  -0.00   0.00    -0.02  -0.05  -0.06     0.05   0.10   0.04
    77   1     0.00  -0.00   0.00    -0.02  -0.04  -0.09     0.06   0.07   0.05
    78   1     0.00  -0.00   0.00     0.01  -0.01  -0.08     0.04   0.06   0.04
    79   6     0.00  -0.00   0.00    -0.00  -0.07  -0.02     0.00   0.10  -0.00
    80   1     0.00  -0.00  -0.00    -0.01  -0.07  -0.00    -0.01   0.09  -0.02
    81   1     0.00  -0.00   0.00     0.01  -0.09  -0.03     0.01   0.09   0.00
    82   1    -0.00   0.00   0.00     0.01  -0.07  -0.04     0.00   0.12   0.01
    83   1    -0.09  -0.59   0.77    -0.00   0.02   0.01    -0.02   0.01  -0.00
    84   6     0.02   0.00   0.00    -0.01  -0.04  -0.04    -0.04  -0.04   0.00
    85   8    -0.00  -0.00   0.00    -0.02  -0.04  -0.06    -0.05  -0.05   0.03
    86   7     0.00  -0.00   0.00    -0.01  -0.04  -0.05    -0.03  -0.05  -0.03
    87   6    -0.00   0.00  -0.00     0.03  -0.06  -0.00    -0.02  -0.04  -0.06
    88   6     0.06   0.01  -0.03    -0.00  -0.01  -0.00    -0.04   0.02  -0.00
    89   6     0.03  -0.01   0.02     0.02  -0.05  -0.01    -0.03   0.00  -0.00
    90   6     0.01  -0.00   0.01     0.02  -0.10  -0.04    -0.05   0.02   0.01
    91   6     0.00   0.00  -0.00    -0.02  -0.04  -0.06    -0.04  -0.08  -0.03
    92   1     0.00   0.00  -0.00    -0.04  -0.03  -0.09    -0.06  -0.09  -0.02
    93   1    -0.00   0.00  -0.00    -0.00  -0.01  -0.03    -0.03  -0.09  -0.04
    94   1     0.00   0.00  -0.00    -0.01  -0.08  -0.05    -0.03  -0.09  -0.04
    95   1    -0.00  -0.01  -0.01     0.00  -0.06   0.11    -0.00  -0.02  -0.11
    96   1    -0.00   0.00  -0.00     0.14  -0.08  -0.02    -0.05  -0.02  -0.06
    97   1    -0.00  -0.00  -0.00    -0.03  -0.04  -0.07     0.01  -0.06  -0.05
    98   1     0.02  -0.00   0.01    -0.03  -0.01  -0.01    -0.06   0.01   0.02
    99   1    -0.03   0.14  -0.13     0.01  -0.00   0.01    -0.04   0.05  -0.00
   100   1     0.01  -0.00   0.01    -0.00  -0.10  -0.08    -0.07   0.01   0.03
   101   1     0.00  -0.01   0.02     0.04  -0.13  -0.05    -0.05   0.01   0.01
   102   1    -0.00  -0.01   0.01     0.04  -0.11  -0.03    -0.05   0.04   0.01
   103   1     0.00  -0.00   0.00     0.04  -0.06   0.02    -0.02   0.01  -0.02
   104   1    -0.01  -0.00  -0.00    -0.01   0.01  -0.02    -0.05  -0.03  -0.08
   105   1    -0.00  -0.00  -0.00     0.03   0.00   0.04     0.16  -0.03   0.16
                      4                      5                      6
                      A                      A                      A
 Frequencies --     27.7637                31.0637                38.4121
 Red. masses --      4.2631                 5.0432                 4.6691
 Frc consts  --      0.0019                 0.0029                 0.0041
 IR Inten    --      2.8541                 1.4395                 0.2331
  Atom AN      X      Y      Z        X      Y      Z        X      Y      Z
     1   6    -0.01  -0.01   0.02     0.01  -0.01   0.01     0.04   0.01  -0.05
     2   6    -0.01  -0.03   0.01    -0.06   0.03  -0.08     0.06   0.03  -0.01
     3   6     0.01  -0.04   0.06    -0.06   0.04  -0.10     0.08   0.03  -0.02
     4   6     0.02  -0.04   0.09    -0.04   0.02  -0.07     0.07   0.02  -0.04
     5   6     0.01  -0.03   0.07     0.00  -0.00  -0.01     0.05   0.01  -0.06
     6   6    -0.02  -0.00   0.00     0.05  -0.03   0.08     0.02  -0.00  -0.05
     7   6    -0.02   0.02  -0.03     0.04  -0.01   0.05     0.01  -0.03  -0.02
     8   6    -0.03   0.02  -0.03     0.12  -0.07   0.18    -0.00  -0.03  -0.05
     9   6    -0.03   0.02  -0.02     0.16  -0.11   0.27    -0.00  -0.02  -0.09
    10   6    -0.02   0.01  -0.00     0.12  -0.09   0.21     0.01  -0.00  -0.09
    11   1    -0.03  -0.03  -0.01    -0.08   0.05  -0.10     0.06   0.04   0.01
    12   1     0.04  -0.05   0.13    -0.04   0.03  -0.10     0.09   0.03  -0.05
    13   1     0.03  -0.02   0.10     0.03  -0.02   0.01     0.05   0.01  -0.07
    14   1    -0.02   0.02  -0.04     0.01   0.02  -0.02     0.01  -0.04   0.01
    15   1    -0.04   0.03  -0.03     0.21  -0.16   0.38    -0.01  -0.02  -0.12
    16   1    -0.02   0.01   0.00     0.14  -0.12   0.28     0.01   0.01  -0.12
    17   7    -0.02  -0.02  -0.01    -0.02   0.01  -0.02     0.04   0.02  -0.03
    18   7    -0.02   0.00  -0.01     0.01   0.00   0.01     0.02  -0.01  -0.02
    19  77    -0.01  -0.01  -0.02    -0.01   0.01  -0.03     0.01   0.02  -0.01
    20   8     0.01  -0.03  -0.01    -0.01   0.00  -0.02     0.02   0.01  -0.02
    21   8     0.03  -0.04  -0.00     0.02   0.01  -0.02     0.01  -0.00  -0.01
    22   8    -0.01  -0.00  -0.01    -0.01   0.02  -0.02    -0.05   0.01  -0.00
    23   5    -0.01  -0.01  -0.02     0.00   0.01  -0.02    -0.01   0.02  -0.02
    24   5     0.01  -0.01  -0.01    -0.01   0.01  -0.03     0.01   0.02  -0.01
    25   5    -0.02   0.01   0.00    -0.00   0.01  -0.03    -0.02   0.01   0.02
    26   8    -0.03   0.03   0.03     0.00   0.01  -0.04    -0.02   0.00   0.07
    27   8     0.01  -0.00  -0.01    -0.00   0.02  -0.04     0.02   0.03  -0.01
    28   6     0.02  -0.01  -0.00    -0.00   0.01  -0.02     0.04   0.04  -0.03
    29   6     0.03  -0.03   0.00    -0.00  -0.00  -0.01     0.04   0.02  -0.04
    30   6    -0.01   0.02   0.01    -0.01   0.02  -0.02    -0.08  -0.01   0.04
    31   6    -0.01   0.04   0.03    -0.00   0.01  -0.03    -0.05  -0.01   0.09
    32   6     0.03  -0.03   0.01     0.04  -0.00   0.01     0.02  -0.01  -0.00
    33   6    -0.01  -0.01  -0.02     0.02   0.00   0.00    -0.02   0.01  -0.04
    34   8    -0.04   0.01  -0.02    -0.00   0.01  -0.01    -0.03   0.04  -0.04
    35   6     0.02  -0.04   0.02    -0.01  -0.01  -0.00     0.05   0.03  -0.05
    36   1     0.04  -0.07  -0.01    -0.01  -0.03  -0.01     0.05   0.04  -0.04
    37   1    -0.00  -0.06   0.05    -0.01  -0.02   0.01     0.05   0.04  -0.05
    38   1     0.02   0.00   0.02    -0.01  -0.00   0.01     0.04   0.03  -0.05
    39   6     0.04  -0.02   0.01     0.02   0.01  -0.00     0.04   0.00  -0.05
    40   1     0.04  -0.03   0.01     0.02  -0.00   0.00     0.04  -0.02  -0.05
    41   1     0.06  -0.02   0.03     0.02   0.01   0.00     0.06   0.01  -0.07
    42   1     0.04   0.00   0.01     0.02   0.02  -0.01     0.04  -0.00  -0.04
    43   6     0.01  -0.02  -0.01    -0.02  -0.01  -0.03     0.04   0.07  -0.02
    44   1     0.00  -0.03  -0.01    -0.03  -0.01  -0.04     0.03   0.07  -0.00
    45   1     0.01  -0.01  -0.01    -0.02   0.01  -0.04     0.04   0.08  -0.01
    46   1     0.02  -0.04   0.00    -0.01  -0.02  -0.02     0.04   0.08  -0.03
    47   6     0.04  -0.00   0.01     0.01   0.01  -0.02     0.05   0.05  -0.04
    48   1     0.05  -0.01   0.02     0.01   0.01  -0.01     0.06   0.05  -0.06
    49   1     0.03   0.01   0.00     0.00   0.02  -0.03     0.05   0.06  -0.04
    50   1     0.04   0.01   0.01     0.01   0.02  -0.02     0.05   0.03  -0.05
    51   6     0.07  -0.08   0.00     0.08  -0.01  -0.00     0.05  -0.07  -0.01
    52   1     0.08  -0.07   0.01     0.10  -0.02   0.02     0.06  -0.07  -0.01
    53   1     0.07  -0.10  -0.04     0.09  -0.01  -0.03     0.05  -0.09  -0.05
    54   1     0.10  -0.09   0.03     0.09  -0.01   0.00     0.07  -0.08   0.02
    55   6     0.04  -0.00   0.07     0.03  -0.00   0.05     0.02   0.01   0.06
    56   1     0.07  -0.02   0.10     0.04  -0.01   0.05     0.04  -0.01   0.09
    57   1     0.02   0.03   0.08    -0.01   0.00   0.06    -0.01   0.05   0.07
    58   1     0.05   0.00   0.08     0.04  -0.01   0.08     0.03   0.00   0.07
[...]
 00106,0.00000344,0.00000048,-0.00000394,-0.00000377,-0.00000512,-0.000
 00233,0.00000871,0.00000212,-0.00000145,-0.00000047,-0.00000163,0.0000
 0096,0.00000246,0.00000076,-0.00000422,-0.00000200,0.00000062,-0.00000
 115,-0.00003302,-0.00003767,0.00003576,-0.00000848,-0.00001592,-0.0000
 0105,0.00000867,0.00000486,0.00000816,0.00000823,0.00000408,-0.0000004
 5,-0.00000103,0.00000084,-0.00000283,0.00003909,-0.00000023,-0.0000654
 8,-0.00000689,-0.00001802,0.00002295,0.00001431,0.00000543,-0.00000502
 ,-0.00000568,0.00000079,0.00000065,-0.00000154,-0.00000060,-0.00000061
 ,0.00000016,-0.00000021,-0.00000043,0.00000197,0.00000105,0.00000125,-
 0.00000371,0.00000147,0.00000294,-0.00000045,0.00000022,0.00000118,0.0
 0000034,0.00000046,-0.00000082,0.00000822,-0.00000524,0.00000493,-0.00
 002321,0.00001959,-0.00000432,-0.00000007,-0.00000181,-0.00000225,0.00
 000288,-0.00000130,0.00000630,-0.00000310,0.00000303,0.00000303,-0.000
 00215,0.00000124,-0.00000002,-0.09055454,0.13332727,-0.00051560,0.0003
 8795,-0.00087315,-0.00006436,0.00008935,0.00006226,-0.00004887,-0.0000
 9746,-0.00001444,0.00008897,0.00003817,-0.00008055,-0.00006184,0.00002
 252,0.00009880,-0.00039012,0.00072617,0.00018758,0.00209890,-0.0054898
 8,-0.00325508,0.11222837,-0.09637899,-0.14728448,0.00598632,-0.0026909
 1,-0.00232256,0.00124129,-0.00340720,0.00466542,0.00000184,-0.00000277
 ,-0.00000323,-0.00000108,-0.00000195,-0.00000538,0.00003584,0.00002909
 ,0.00004513,-0.00138304,0.00093252,-0.00199237,-0.00153066,0.00141249,
 -0.00208603,0.00037603,-0.00013871,-0.00002432,0.00015745,-0.00005708,
 -0.00007663,0.00443516,-0.00145838,0.00514822,-0.00026956,-0.00009984,
 -0.00003210,-0.00002864,0.00007471,0.00003071,0.00004300,0.00003728,-0
 .00008574,-0.00016988,0.00009812,-0.00007376,0.00000721,-0.00007030,0.
 00010507,0.00005027,-0.00019507,-0.00006601,0.00032310,-0.00012240,0.0
 0010687,-0.00030041,0.00014841,-0.00008952,-0.00009149,0.00015748,0.00
 007111,0.00004019,-0.00001413,-0.00000916,0.00002003,-0.00002490,-0.00
 000386,0.00009770,0.00004700,0.00005284,0.00013242,-0.00026235,-0.0000
 5323,-0.00002326,-0.00001310,0.00001150,-0.00000453,-0.00001648,0.0000
 3564,0.00005852,0.00007840,-0.00007870,-0.00000158,0.00000363,0.000001
 25,0.00000006,0.00000039,-0.00000322,0.00000106,0.00000391,0.00000301,
 -0.00000190,-0.00000170,0.00000027,0.00000098,0.00000462,0.00000251,-0
 .00000536,-0.00000195,-0.00000139,0.00000133,0.00000712,0.00000060,0.0
 0000450,-0.00000356,-0.00000299,0.00000437,0.00001687,-0.00001874,-0.0
 0001293,0.00000676,-0.00000020,0.00001661,-0.00000597,0.00002104,-0.00
 000473,-0.00000327,0.00000232,0.00002417,0.00000106,-0.00000821,-0.000
 01439,0.00000052,-0.00000246,-0.00001292,0.00000727,0.00002069,0.00000
 606,0.00000785,-0.00000831,0.00000764,-0.00000052,-0.00000088,0.000000
 81,0.00000138,-0.00000426,-0.00000204,0.00000186,-0.00000131,-0.000000
 56,-0.00000090,-0.00000006,0.00000464,0.00000360,-0.00000105,-0.000001
 34,0.00000015,0.00000204,-0.00000294,-0.00000017,-0.00000292,0.0000036
 6,0.00000056,-0.00000166,0.00000544,0.00000633,-0.00000654,0.00000127,
 0.00000196,0.00000230,0.00000221,-0.00000460,-0.00000158,-0.00000183,0
 .00000377,-0.00000412,-0.00000016,0.00000343,-0.00000730,0.00000112,0.
 00000145,0.00000237,0.00000403,0.00000138,-0.00000217,-0.00000377,0.00
 000049,-0.00000009,0.00000289,0.00004864,-0.00000361,-0.00001115,-0.00
 000230,-0.00000612,-0.00002049,-0.00002955,-0.00001222,-0.00000249,0.0
 0000474,0.00002847,0.00017722,0.00022436,-0.00006110,-0.00012075,-0.00
 012764,-0.00000319,-0.00003780,-0.00002648,0.00005480,0.00003215,0.000
 00364,0.00001069,-0.00001929,0.00000006,-0.00000548,-0.00000388,0.0000
 1054,-0.00001131,-0.00000888,-0.00000347,0.00001427,0.00001589,0.00001
 334,0.00000679,-0.00003904,-0.00001763,0.00000026,0.00000728,0.0000049
 7,0.00000308,-0.00000859,-0.00000426,0.00001692,-0.00000225,0.00000413
 ,-0.00000980,-0.00003159,0.00008130,-0.00006345,-0.00003834,-0.0000218
 2,0.00002308,0.00002373,0.00001287,-0.00000536,0.00002863,0.00001896,-
 0.00001594,0.00000058,-0.00001021,-0.00000386,-0.00016520,-0.00001272,
 0.00002677,-0.00000735,0.00000017,-0.00001979,0.00000679,0.00000609,-0
 .00000058,-0.00000800,0.00000631,0.00000795,-0.00000325,-0.00000160,0.
 00000105,0.00000253,0.00000115,-0.00000394,0.00000420,0.00000015,-0.00
 000032,-0.00000024,-0.00000322,-0.00000049,-0.00000075,0.00000047,0.00
 000176,0.00000339,0.00000160,-0.00000212,-0.00000589,-0.00000710,0.000
 02496,0.00004518,-0.00004635,0.00003424,-0.00000339,0.00000061,-0.0000
 0070,0.00000851,0.00000032,0.00000463,-0.00000183,-0.00000138,-0.00000
 504,0.00000858,0.00000209,0.00000204,-0.12240958,0.10607566,0.14786113
 ,-0.00007593,-0.00079402,-0.00040841,0.00293797,-0.00165135,-0.0018626
 8,-0.19994149,0.07213509,0.13169795,-0.01090914,0.01055395,0.01192727,
 0.00037671,-0.00414204,0.00374460,-0.00038861,0.00024644,-0.00066486,-
 0.00005601,0.00001607,0.00004663,0.00003642,0.00006419,-0.00000153,0.0
 0003333,-0.00004761,-0.00006568,-0.00009975,0.00001832,0.00008245,-0.0
 0084533,0.00051856,-0.00139785,-0.00042693,0.00057323,-0.00215595,-0.0
 0047237,0.00055919,0.00064816,-0.00000313,-0.00000476,0.00000149,-0.00
 000831,0.00000181,-0.00000142,0.00006795,-0.00000352,0.00003279,0.0038
 1124,-0.00158317,0.00260455,0.00002786,-0.00004138,-0.00000851,-0.0001
 3716,0.00013475,-0.00007686,0.00001253,0.00007191,0.00003581,0.0000442
 1,0.00006165,-0.00010455,-0.00003741,0.00004691,-0.00005479,-0.0000567
 4,-0.00005347,0.00008385,0.00005162,-0.00009321,-0.00004524,0.00006242
 ,-0.00004017,0.00008926,-0.00004111,0.00002216,-0.00003953,-0.00001594
 ,0.00005379,0.00002482,-0.00000320,-0.00001649,-0.00001419,0.00000702,
 -0.00002960,-0.00000209,0.00002200,-0.00000652,0.00002953,0.00001633,-
 0.00001878,0.00001205,-0.00001284,0.00000153,0.00005403,-0.00000381,0.
 00000067,0.00001964,0.00003554,0.00003050,-0.00004991,-0.00000035,0.00
 000494,0.00000028,-0.00000026,-0.00000090,-0.00000137,-0.00000012,0.00
 000302,0.00000221,0.00000120,-0.00000125,-0.00000025,-0.00000007,0.000
 00414,0.00000028,0.00000083,-0.00000148,-0.00000008,-0.00000032,0.0000
 0428,-0.00000014,0.00000005,-0.00000154,0.00000100,0.00000021,0.000002
 44,0.00000311,-0.00000149,0.00000109,-0.00000150,0.00000060,-0.0000017
 7,-0.00000124,0.00000092,0.00000261,0.00000271,-0.00000011,0.00000111,
 0.00000316,0.00000015,0.00000278,0.00000099,-0.00000138,-0.00000073,0.
 00000012,0.00000054,-0.00000013,-0.00000144,-0.00000468,0.00002684,0.0
 0001037,-0.00000143,-0.00000649,-0.00000679,-0.00000407,0.00000472,-0.
 00000228,0.00001145,-0.00000934,-0.00000905,-0.00001249,0.00000854,-0.
 00002004,0.00002060,0.00000962,0.00003218,-0.00000336,-0.00000898,-0.0
 0001436,0.00000235,0.00000032,-0.00000094,0.00000010,0.00000149,-0.000
 00143,-0.00000163,-0.00000063,-0.00000079,-0.00000190,-0.00000109,0.00
 000374,0.00000248,0.00000425,-0.00000448,0.00000126,0.00000043,-0.0000
 0034,-0.00000049,0.00000010,0.00000078,0.00000313,0.00000134,-0.000002
 53,-0.00000227,0.00000031,-0.00000080,-0.00000571,0.00000374,0.0000034
 8,-0.00000236,0.00000171,-0.00000243,0.00000152,-0.00000109,0.00000026
 ,0.00000125,-0.00000183,-0.00000203,-0.00000395,0.00000108,-0.00000212
 ,0.00000455,-0.00000039,0.00000027,-0.00000194,0.00000331,-0.00000106,
 0.00000160,-0.00000426,-0.00000048,-0.00000153,0.00000061,-0.00000627,
 -0.00000295,0.00000240,-0.00000073,0.00000198,0.00000132,0.00000076,0.
 00000102,-0.00000355,-0.00000186,-0.00000129,0.00000740,-0.00000929,-0
 .00000123,-0.00000179,0.00000707,0.00000247,0.00000116,0.00000105,-0.0
 0000360,0.00000078,-0.00000372,-0.00001614,0.00001281,-0.00000255,-0.0
 0001904,-0.00005643,-0.00000470,-0.00000320,0.00004583,0.00003430,0.00
 002264,0.00003118,-0.00000660,-0.00000146,-0.00001096,-0.00000545,-0.0
 0000145,-0.00006690,-0.00005859,-0.00000378,0.00000476,-0.00000475,-0.
 00000075,0.00000084,0.00000013,-0.00000582,-0.00000526,0.00000535,-0.0
 0000491,-0.00000352,-0.00000434,0.00000169,0.00000060,-0.00000303,0.00
 000359,0.00000250,0.00000155,-0.00000258,0.00000021,0.00000263,-0.0000
 0048,0.00000222,0.00000315,0.00000285,0.00000152,-0.00000127,0.0000132
 0,-0.00000340,0.00002408,-0.00000655,0.00000037,-0.00000693,-0.0000007
 6,0.00000067,-0.00000197,0.00000377,0.00000149,0.00000178,-0.00000223,
 -0.00000015,0.00000092,-0.00000037,0.00000234,0.00000159,0.00000892,-0
 .00000107,0.00001971,0.20600565,-0.00138921,-0.00168049,0.00062691,0.0
 2379916,-0.00310118,-0.01721614,0.07175419,-0.09452168,-0.06449567,-0.
 01431737,0.01124936,0.01206091,-0.00371945,-0.00158272,0.00038515,0.00
 029064,0.00007255,0.00019636,0.00002661,0.00002682,0.00000164,-0.00000
 835,-0.00001765,0.00000861,0.00004757,0.00005511,0.00001137,-0.0000105
 0,-0.00007488,-0.00007007,0.00014570,0.00060170,0.00088639,0.00106886,
 0.00062353,0.00034300,-0.00078064,0.00043970,0.00063407,-0.00000656,-0
 .00000233,0.00000053,0.00000632,-0.00000213,-0.00000159,0.00003085,0.0
 0003273,-0.00000951,-0.00053755,-0.00605520,-0.00375859,-0.00007927,-0
 .00005388,0.00001426,0.00040599,0.00067286,0.00033371,-0.00005928,-0.0
 0018138,-0.00009786,-0.00019230,0.00004015,0.00028242,0.00001685,-0.00
 005703,0.00007269,0.00022898,0.00009378,-0.00035262,-0.00009254,0.0000
 6843,0.00004481,-0.00007052,0.00006238,-0.00012133,0.00003498,-0.00002
 522,0.00003029,0.00002876,-0.00012811,-0.00007916,0.00001319,0.0000205
 0,0.00002931,-0.00001326,0.00004703,-0.00001247,-0.00002054,0.00000639
 ,-0.00002454,-0.00001348,0.00002239,-0.00001871,0.00015840,-0.00001860
 ,-0.00002163,-0.00000485,-0.00001986,-0.00008505,-0.00009905,-0.000021
 94,0.00013904,0.00000737,-0.00001326,0.00000113,0.00000185,0.00000094,
 0.00000101,-0.00000381,-0.00000466,-0.00000568,-0.00000531,-0.00000092
 ,0.00000060,0.00000659,-0.00001033,-0.00000306,-0.00000729,-0.00000119
 ,-0.00000153,-0.00000139,-0.00000647,0.00000392,0.00000439,0.00000347,
 -0.00000389,-0.00000466,-0.00000848,-0.00000520,0.00000077,-0.00000057
 ,0.00000408,0.00000046,0.00000084,0.00000129,0.00000055,-0.00000216,-0
 .00000657,-0.00000431,-0.00000324,-0.00000945,0.00000203,-0.00000638,-
 0.00000159,0.00000186,0.00000016,0.00000049,0.00000027,0.00000041,0.00
 000215,-0.00002694,-0.00003192,-0.00001675,0.00000444,0.00000837,0.000
 01216,-0.00000725,0.00001238,-0.00000701,0.00000406,0.00001017,0.00003
 202,-0.00004572,-0.00011774,-0.00009296,-0.00001016,0.00003059,0.00008
 997,-0.00000142,-0.00000778,-0.00000891,-0.00000112,0.00004700,0.00000
 887,-0.00000309,0.00001503,0.00002595,-0.00000156,0.00001465,0.0000006
 6,0.00000441,-0.00000212,-0.00000971,-0.00000211,-0.00000748,0.0000044
 3,-0.00000360,0.00000174,0.00001564,-0.00000102,0.00001328,0.00000288,
 -0.00000644,-0.00000817,0.00000381,-0.00000576,-0.00000280,-0.00001199
 ,0.00000130,-0.00000380,-0.00000016,0.00000277,-0.00000105,0.00000138,
 -0.00000154,0.00000029,0.00000074,0.00000029,0.00000277,0.00000088,0.0
 0000009,-0.00000706,0.00000369,-0.00000247,0.00000080,0.00000079,0.000
 00305,-0.00000239,-0.00000017,-0.00000277,0.00000392,-0.00000087,0.000
 00302,0.00000106,0.00000354,0.00000100,-0.00000202,0.00000064,-0.00000
 169,-0.00000370,0.00000087,-0.00000096,0.00000359,0.00000208,0.0000061
 2,-0.00000199,0.00000625,0.00000578,0.00000376,-0.00000665,-0.00000220
 ,-0.00000797,0.00000179,-0.00000083,0.00000096,0.00000467,0.00003429,-
 0.00001934,0.00002790,0.00005174,-0.00011387,-0.00010209,-0.00001510,0
 .00009848,0.00015643,-0.00000092,0.00004845,0.00003285,0.00000096,-0.0
 0002668,-0.00001342,-0.00001755,0.00004220,-0.00001327,0.00001605,-0.0
 0000432,0.00000632,-0.00001710,0.00000655,0.00000132,0.00001037,-0.000
 00781,-0.00001626,-0.00001074,0.00000458,-0.00001397,-0.00000828,-0.00
 001282,0.00000308,0.00000160,0.00000402,0.00001105,0.00001145,0.000004
 69,-0.00000625,0.00000200,0.00000513,0.00000984,-0.00000479,0.00000108
 ,0.,0.00000943,-0.00001466,-0.00000927,-0.00000544,-0.00000647,0.00001
 036,0.00000311,0.00000209,-0.00000538,-0.00000413,0.00000047,-0.000006
 92,-0.00000117,-0.00000159,0.00000892,-0.00000161,-0.00000117,0.000007
 64,0.00000134,0.00000760,-0.00000795,-0.07660491,0.09348169,-0.0006476
 5,0.00013787,0.00012787,0.00485510,0.00006063,-0.00234239,0.13104610,-
 0.06454867,-0.14205037,0.00578902,-0.00497535,-0.00265723,0.00389576,0
 .00051400,0.00479192,-0.00067292,0.00030613,-0.00093769,-0.00011488,0.
 00002292,0.00006215,0.00006905,0.00008153,-0.00002411,-0.00000387,-0.0
 0010126,-0.00006910,-0.00003215,0.00005797,0.00010415,-0.00161000,0.00
 049897,-0.00193689,-0.00202585,0.00069080,-0.00218997,0.00030594,-0.00
 029783,-0.00005726,0.00000256,-0.00000008,-0.00000287,-0.00000029,0.00
 000330,-0.00000723,-0.00001200,-0.00004455,0.00004733,0.00318850,-0.00
 277891,0.00538494,0.00012110,-0.00014328,-0.00007449,-0.00013966,0.000
 23016,-0.00001573,-0.00005478,-0.00007448,-0.00004978,-0.00003762,0.00
 004739,0.00004166,0.00000083,-0.00004312,0.00001695,0.00010571,0.00006
 650,-0.00007855,0.00007376,0.00008744,0.00006156,-0.00004580,0.0001545
 0,0.00000922,0.00003677,-0.00004483,0.00001489,-0.00000547,-0.00008471
 ,-0.00005295,0.00001507,0.00002083,0.00002828,-0.00000155,0.00001708,0
 .00000096,-0.00000637,0.00000571,-0.00000760,-0.00001176,0.00002480,-0
 .00001727,0.00004428,-0.00000112,0.00001395,0.00001398,0.00000763,-0.0
 0001754,-0.00004815,-0.00002443,0.00002201,0.00000254,-0.00000403,0.00
 000076,0.00000197,0.00000091,-0.00000164,-0.00000181,-0.00000158,-0.00
 000231,-0.00000411,-0.00000205,0.00000146,0.00000345,-0.00000366,-0.00
 000220,-0.00000254,-0.00000028,0.00000147,-0.00000023,-0.00000330,0.00
 000087,-0.00000066,0.00000107,-0.00000183,-0.00000100,-0.00000443,-0.0
 0000473,0.00000141,0.00000125,0.00000246,-0.00000135,0.00000124,0.0000
 0177,-0.00000029,-0.00000275,-0.00000435,-0.00000288,-0.00000455,-0.00
 000507,0.00000055,-0.00000452,-0.00000177,-0.00000002,0.00000097,0.000
 00144,0.00000063,0.00000179,0.00000006,-0.00001308,0.00001899,0.000009
 25,-0.00000235,-0.00000506,0.00000067,-0.00000351,0.00000286,-0.000006
 68,0.00000557,-0.00000398,-0.00000311,-0.00001860,0.00001855,-0.000006
 90,0.00000957,-0.00001821,0.00003490,0.00000224,-0.00002279,-0.0000213
 4,-0.00000320,0.00000380,0.00000021,-0.00000389,0.00000066,0.00000651,
 0.00000017,0.00000177,-0.00000193,-0.00000106,0.00000113,-0.00000319,0
 .00000047,-0.00000003,0.00000146,0.00000171,-0.00000544,0.00000569,-0.
 00000004,0.00000080,-0.00000070,-0.00000198,-0.00000049,0.00000037,-0.
 00000358,0.00000175,-0.00000262,0.00000025,-0.00000121,0.00000203,0.00
 000182,-0.00000247,0.00000146,-0.00000123,0.00000107,-0.00000026,-0.00
 000021,0.00000091,-0.00000184,0.00000376,-0.00000625,0.00000106,-0.000
 00045,-0.00000040,0.00000187,0.00000277,-0.00000421,-0.00000014,-0.000
 00092,0.00000110,0.00000057,0.00000039,-0.00000026,0.00000005,0.000001
 18,-0.00000099,0.00000066,-0.00000139,-0.00000143,0.00000150,0.0000004
 6,0.00000017,-0.00000144,0.00000212,0.00000343,-0.00000209,0.00000024,
 -0.00000130,-0.00000035,-0.00000108,-0.00000143,0.00000140,0.00000044,
 0.,0.00000178,0.00001358,-0.00000717,0.00002465,0.00003063,-0.00027664
 ,-0.00011699,-0.00004960,0.00026763,0.00016839,0.00003784,0.00013495,0
 .00000029,0.00000485,-0.00003595,-0.00001541,0.00003596,-0.00009397,-0
 .00005027,0.00002310,0.00004678,-0.00001406,-0.00003691,-0.00002468,-0
 .00000074,-0.00000037,-0.00001802,0.00001262,-0.00001046,-0.00000929,-
 0.00000251,0.00000240,0.00000427,-0.00000564,0.00000371,0.00000248,-0.
 00000002,0.00000780,0.00000661,0.00000338,0.00000081,0.00000920,0.0000
 0886,0.00000187,0.00000571,0.00000185,0.00004275,-0.00000282,0.0000201
 4,-0.00002799,0.00001982,-0.00002103,0.00000450,0.00000840,-0.00000788
 ,-0.00000968,0.00000605,-0.00001464,-0.00000195,0.00000185,0.00001282,
 -0.00000498,0.00000309,0.00000871,0.00001682,-0.00001531,0.00002178,-0
 .14414977,0.07013633,0.14182170\\-0.00000055,0.00000077,0.00000119,0.0
 0000370,-0.00000046,-0.00000391,-0.00000323,0.00000346,0.00000125,-0.0
 0000512,-0.00000304,0.00000039,0.00000360,0.00000304,-0.00000357,-0.00
 000283,0.00000285,0.00000316,0.00000866,0.00000354,-0.00000158,-0.0000
 0582,-0.00000887,0.00000179,0.00000435,0.00000590,0.00000163,0.0000002
 9,0.00000357,0.00000155,-0.00000390,-0.00000099,-0.00000110,-0.0000019
 8,0.00000249,-0.00000063,-0.00000196,-0.00000071,0.00000048,0.00000077
 ,-0.00000028,0.00000111,-0.00000092,-0.00000048,0.00000267,-0.00000065
 ,-0.00000122,0.00000062,-0.00000409,-0.00000292,-0.00000002,-0.0000007
 8,-0.00000115,0.00000106,0.00000244,-0.00000203,-0.00000272,0.00000361
 ,0.00000184,-0.00000005,-0.00000232,0.00000033,-0.00000254,0.00000172,
 0.00000084,0.00000048,-0.00000046,0.00000294,0.00000062,-0.00000220,0.
 00000492,0.00000406,-0.00000567,-0.00000160,0.00000094,0.00000244,0.00
 000109,0.00000257,0.00000060,-0.00000329,-0.00000161,0.00000336,0.0000
 0236,0.00000397,0.00000133,-0.00000287,-0.00000248,-0.00000469,0.00000
 333,0.00000409,0.00000506,-0.00000225,-0.00000475,-0.00000173,-0.00000
 020,0.00000580,-0.00000236,0.00000290,-0.00000207,-0.00000187,-0.00000
 193,0.00000027,0.00000794,-0.00000054,-0.00000149,0.00000246,-0.000000
 77,-0.00000076,0.00000259,-0.00000093,0.00000044,-0.00000179,-0.000001
 66,0.00000127,-0.00000750,-0.00000381,0.00000128,0.00000642,-0.0000004
 8,-0.00000212,0.00000265,-0.00000050,0.00000041,0.00000437,0.00000174,
 0.00000375,0.00000737,-0.00000503,-0.00000408,0.00000038,0.00000087,-0
 .00000006,-0.00000075,-0.00000122,0.00000288,0.00000328,0.00000265,0.0
 0000351,0.00000115,0.,0.00000766,0.00000202,-0.00000196,0.00000032,0.0
 0000298,0.00000034,0.00000118,0.00000100,0.00000086,-0.00000103,-0.000
 00361,0.00000216,-0.00000530,-0.00000202,0.00000119,-0.00000125,-0.000
 00156,-0.00000030,-0.00000007,-0.00000343,-0.00000138,-0.00000199,0.00
 000503,0.00000051,-0.00000642,-0.00000248,-0.00000051,-0.00000141,-0.0
 0000301,0.00000004,-0.00000149,-0.00000553,-0.00000080,-0.00000087,0.0
 0000091,0.00000008,0.00000133,-0.00000083,-0.00000039,-0.00000068,-0.0
 0000254,0.00000039,-0.00000056,-0.00000144,0.00000013,0.00000003,0.000
 00293,0.00000107,-0.00001044,-0.00000056,0.00000087,-0.00000033,-0.000
 00401,-0.00000106,0.00000352,0.00000084,-0.00000256,-0.00000046,-0.000
 00243,0.00000093,0.00000082,-0.00000133,0.00000095,0.00000385,-0.00000
 096,0.00000180,0.00000212,-0.00000216,0.00000237,0.00000428,-0.0000041
 4,0.00000959,0.00000452,0.,-0.00000135,0.00000446,0.00000216,-0.000001
 92,0.00000344,0.00000121,-0.00000027,0.00000237,0.00000039,0.00000395,
 -0.00000086,0.00000026,0.00000104,0.00000332,-0.00000235,-0.00000040,0
 .00000306,-0.00000035,0.00000006,0.00000172,-0.00000258,0.00000082,0.0
 0000667,-0.00000147,-0.00000092,0.00000062,0.00000119,0.00000258,-0.00
 000005,-0.00000408,0.00000180,0.00000030,-0.00000012,-0.00000150,0.,0.
 00000257,0.00000118,0.00000048,-0.00000036,-0.00000180,-0.00000217,0.0
 0000426,0.00000144,-0.00000496,0.00000311,0.00000008,-0.00000653,0.000
 00402,-0.00000245,0.00000212,-0.00000340,-0.00000179,-0.00000720,-0.00
 000194,-0.00000679,-0.00000057,-0.00000470,0.00000040,0.00000161,0.000
 00007,-0.00000256,-0.00000463,-0.00000045,-0.00000159,-0.00000374,-0.0
 0000020,-0.00000141,-0.00000393,0.00000259,-0.00000234,-0.00000164,0.0
 0000086,-0.00000118,-0.00000128,-0.00000183,-0.00000368,0.00000055,-0.
 00000011,0.00000109,-0.00000147,0.00000092,-0.00000013,-0.00000050,0.0
 0000116,0.00000215,-0.00000177,0.00000396,-0.00000074,-0.00000124,0.00
 000308,-0.00000113,-0.00000192,0.00000212,-0.00000102,-0.00000179,0.00
 000036,0.00000175,0.00000337,-0.00000140,0.00000011,-0.00000288\\\@
 The archive entry for this job was punched.


 SIC AS THE CAWSE OF EWERY THING IS, SIC WILBE THE EFFECT.
 -- PROVERBS AND REASONS OF THE YEAR 1585
           AS REPRINTED IN PAISLEY MAGAZINE 1828.
 Job cpu time:       1 days 19 hours 40 minutes  7.3 seconds.
 Elapsed time:       0 days  2 hours 46 minutes 35.4 seconds.
 File lengths (MBytes):  RWF=   7470 Int=      0 D2E=      0 Chk=     45 Scr=      1
 Normal termination of Gaussian 16 at Sun Dec  8 00:57:44 2024.
