/mnt/lustre/scratch/nvme/SLURM/9698474/usccqdma.02LhIVStqr
OMP_STACKSIZE=0m
GAUSS_PDEF=16
GAUSS_MDEF=65536MB
GAUSS_RDEF=SCF=Direct
 Entering Gaussian System, Link 0=g16.exe
 Initial command:
 /opt/cesga/2020/software/Core/g16/c1/l1.exe "/mnt/lustre/scratch/nvme/SLURM/9698474/usccqdma.02LhIVStqr/Gau-338383.inp" -scrdir="/mnt/lustre/scratch/nvme/SLURM/9698474/usccqdma.02LhIVStqr/"
 Default is to use a total of  16 processors:
                               16 via shared-memory
                                1 via Linda
 Entering Link 1 = /opt/cesga/2020/software/Core/g16/c1/l1.exe PID=    338410.
  
 Copyright (c) 1988-2019, Gaussian, Inc.  All Rights Reserved.
  
 This is part of the Gaussian(R) 16 program.  It is based on
 the Gaussian(R) 09 system (copyright 2009, Gaussian, Inc.),
 the Gaussian(R) 03 system (copyright 2003, Gaussian, Inc.),
 the Gaussian(R) 98 system (copyright 1998, Gaussian, Inc.),
 the Gaussian(R) 94 system (copyright 1995, Gaussian, Inc.),
 the Gaussian 92(TM) system (copyright 1992, Gaussian, Inc.),
 the Gaussian 90(TM) system (copyright 1990, Gaussian, Inc.),
 the Gaussian 88(TM) system (copyright 1988, Gaussian, Inc.),
 the Gaussian 86(TM) system (copyright 1986, Carnegie Mellon
 University), and the Gaussian 82(TM) system (copyright 1983,
 Carnegie Mellon University). Gaussian is a federally registered
 trademark of Gaussian, Inc.
  
 This software contains proprietary and confidential information,
 including trade secrets, belonging to Gaussian, Inc.
  
 This software is provided under written license and may be
 used, copied, transmitted, or stored only in accord with that
 written license.
  
 The following legend is applicable only to US Government
 contracts under FAR:
  
                    RESTRICTED RIGHTS LEGEND
  
 Use, reproduction and disclosure by the US Government is
 subject to restrictions as set forth in subparagraphs (a)
 and (c) of the Commercial Computer Software - Restricted
 Rights clause in FAR 52.227-19.
  
 Gaussian, Inc.
 340 Quinnipiac St., Bldg. 40, Wallingford CT 06492
  
  
 ---------------------------------------------------------------
 Warning -- This program may not be used in any manner that
 competes with the business of Gaussian, Inc. or will provide
 assistance to any competitor of Gaussian, Inc.  The licensee
 of this program is prohibited from giving any competitor of
 Gaussian, Inc. access to this program.  By using this program,
 the user acknowledges that Gaussian, Inc. is engaged in the
 business of creating and licensing software in the field of
 computational chemistry and represents and warrants to the
 licensee that it is not a competitor of Gaussian, Inc. and that
 it will not use this program in any manner prohibited above.
 ---------------------------------------------------------------
  

 Cite this work as:
 Gaussian 16, Revision C.01,
 M. J. Frisch, G. W. Trucks, H. B. Schlegel, G. E. Scuseria, 
 M. A. Robb, J. R. Cheeseman, G. Scalmani, V. Barone, 
 G. A. Petersson, H. Nakatsuji, X. Li, M. Caricato, A. V. Marenich, 
 J. Bloino, B. G. Janesko, R. Gomperts, B. Mennucci, H. P. Hratchian, 
 J. V. Ortiz, A. F. Izmaylov, J. L. Sonnenberg, D. Williams-Young, 
 F. Ding, F. Lipparini, F. Egidi, J. Goings, B. Peng, A. Petrone, 
 T. Henderson, D. Ranasinghe, V. G. Zakrzewski, J. Gao, N. Rega, 
 G. Zheng, W. Liang, M. Hada, M. Ehara, K. Toyota, R. Fukuda, 
 J. Hasegawa, M. Ishida, T. Nakajima, Y. Honda, O. Kitao, H. Nakai, 
 T. Vreven, K. Throssell, J. A. Montgomery, Jr., J. E. Peralta, 
 F. Ogliaro, M. J. Bearpark, J. J. Heyd, E. N. Brothers, K. N. Kudin, 
 V. N. Staroverov, T. A. Keith, R. Kobayashi, J. Normand, 
 K. Raghavachari, A. P. Rendell, J. C. Burant, S. S. Iyengar, 
 J. Tomasi, M. Cossi, J. M. Millam, M. Klene, C. Adamo, R. Cammi, 
 J. W. Ochterski, R. L. Martin, K. Morokuma, O. Farkas, 
 J. B. Foresman, and D. J. Fox, Gaussian, Inc., Wallingford CT, 2019.
 
 ******************************************
 Gaussian 16:  ES64L-G16RevC.01  3-Jul-2019
                10-Dec-2024 
 ******************************************
 Default route: SCF=Direct
 ----------------------------------------------------
 # m06/genecp scf=tight int=ultrafine 5d freq=noraman
 ----------------------------------------------------
 1/10=4,30=1,38=1/1,3;
 2/12=2,17=6,18=5,40=1/2;
 3/5=7,8=1,11=2,16=1,17=8,25=1,30=1,71=2,74=-54,75=-5,140=1/1,2,3;
 4//1;
 5/5=2,32=2,38=5,98=1/2;
 8/6=4,10=90,11=11/1;
 11/6=1,8=1,9=11,15=111,16=1/1,2,10;
 10/6=1/2;
 6/7=2,8=2,9=2,10=2,28=1/1;
 7/8=1,10=1,25=1/1,2,3,16;
 1/10=4,30=1/3;
 99//99;
 ------
 OPT-TS
 ------
 Symbolic Z-matrix:
 Charge =  0 Multiplicity = 1
 C                    -2.11872   1.14592  -1.20707 
 C                    -2.17068   1.13136   1.10986 
 C                    -3.28538   1.95967   1.14753 
 C                    -3.82073   2.38425  -0.05896 
 C                    -3.23516   1.97856  -1.24962 
 C                    -1.4113    0.70214  -2.42684 
 C                     0.4385   -0.3972   -3.30556 
 C                     0.05186  -0.10514  -4.60678 
 C                    -1.12094   0.60996  -4.80995 
 C                    -1.85906   1.01879  -3.70936 
 H                    -1.68567   0.77074   2.0185 
 H                    -3.6539    2.32338  -2.1919 
 H                     1.35285  -0.94535  -3.07528 
 H                    -1.46086   0.85095  -5.81506 
 H                    -2.78001   1.57673  -3.85427 
 N                    -1.60823   0.7342   -0.03239 
 N                    -0.27938  -0.00818  -2.24516 
 Ir                    0.35429  -0.47248  -0.13045 
 O                     2.97015  -1.87396   0.61775 
 O                     2.33502   0.58566   2.03375 
 O                     2.57685   1.52367  -1.05842 
 B                     1.07553   0.10442   1.70491 
 B                     2.15422  -1.3622   -0.38128 
 B                     1.382     1.35701  -0.38266 
 O                     0.82419   2.59237  -0.0659 
 O                     2.74284  -1.58134  -1.62913 
 C                     3.95401  -2.33167  -1.43441 
 C                     4.27749  -2.03887   0.05783 
 C                     2.94237   2.9122   -0.98546 
 C                     1.5629    3.59888  -0.77878 
 C                     2.40981   0.68731   3.46196 
 C                     0.92172   0.91153   3.84125 
 O                     0.24487   0.14487   2.82893 
 C                     4.99852  -3.15254   0.78913 
 H                     5.9739   -3.35975   0.32532 
 H                     5.17655  -2.85294   1.83032 
 H                     4.41175  -4.07764   0.80234 
 C                     5.01447  -0.71778   0.25278 
 H                     4.98035  -0.44981   1.31784 
 H                     6.06499  -0.78229  -0.06314 
 H                     4.51543   0.08983  -0.29916 
 C                     3.63075  -3.79619  -1.69493 
 H                     3.19406  -3.89093  -2.69814 
 H                     4.52836  -4.42789  -1.65216 
 H                     2.90055  -4.17593  -0.96798 
 C                     4.99488  -1.84164  -2.42086 
 H                     5.97183  -2.30645  -2.22392 
 H                     4.69601  -2.10742  -3.44355 
 H                     5.1049   -0.7523   -2.37288 
 C                     2.96529  -0.63545   3.97475 
 H                     3.93396  -0.82001   3.49241 
 H                     3.1157   -0.62399   5.06282 
 H                     2.30511  -1.47182   3.71193 
 C                     3.34532   1.81953   3.83333 
 H                     3.40029   1.93967   4.92488 
 H                     4.35545   1.59604   3.4635 
 H                     3.03113   2.77409   3.39481 
 C                     0.52375   0.39255   5.20698 
 H                     1.09708   0.89709   5.99801 
 H                    -0.54149   0.58881   5.38616 
 H                     0.68639  -0.68741   5.29066 
 C                     0.4788    2.35996   3.67277 
 H                    -0.61442   2.41111   3.77104 
 H                     0.91504   3.01588   4.4382 
 H                     0.74545   2.74183   2.67607 
 C                     1.59285   4.86855   0.04683 
 H                     0.57652   5.27111   0.14627 
 H                     1.98232   4.68387   1.05489 
 H                     2.21667   5.63612  -0.4336 
 C                     0.81883   3.84298  -2.08664 
 H                    -0.21588   4.13088  -1.8572 
 H                     1.27538   4.6478   -2.67843 
 H                     0.79063   2.93095  -2.70108 
 C                     3.66737   3.29014  -2.26086 
 H                     3.9034    4.36405  -2.27751 
 H                     4.61242   2.73417  -2.32072 
 H                     3.07872   3.04462  -3.15181 
 C                     3.86893   3.07433   0.21103 
 H                     4.74377   2.42482   0.07776 
 H                     4.22293   4.10862   0.31794 
 H                     3.36541   2.76181   1.13395 
 H                     0.66492  -0.43887  -5.43994 
 C                    -2.95179  -3.50261  -0.1675 
 C                    -2.4943   -4.45425  -1.07972 
 C                    -2.10865  -2.45648   0.21629 
 C                    -1.18933  -4.38243  -1.5489 
 C                    -0.80629  -2.3379   -0.28181 
 H                    -2.48571  -1.70233   0.91061 
 C                    -0.35086  -3.34646  -1.14236 
 H                    -0.82017  -5.1367   -2.24363 
 H                     0.12749  -1.7469    0.89366 
 H                    -3.17336  -5.23994  -1.40607 
 C                    -4.38192  -3.58299   0.26275 
 O                    -5.25772  -3.84595  -0.55089 
 N                    -4.67659  -3.30944   1.58044 
 C                    -3.74485  -3.40722   2.68306 
 H                    -2.74988  -3.68883   2.33206 
 H                    -3.66627  -2.45369   3.22805 
 H                    -4.08994  -4.17477   3.39354 
 C                    -6.06865  -3.26256   1.97022 
 H                    -6.68356  -3.10984   1.08102 
 H                    -6.38047  -4.20094   2.45592 
 H                    -6.22543  -2.43932   2.68131 
 H                     0.6685   -3.30149  -1.53081 
 H                    -3.71803   2.26535   2.09581 
 C                    -5.01114   3.2959   -0.12544 
 F                    -5.50947   3.55986   1.08206 
 F                    -4.68321   4.45928  -0.69847 
 F                    -5.98426   2.75654  -0.86559 
 

 GradGradGradGradGradGradGradGradGradGradGradGradGradGradGradGradGradGrad
 Berny optimization.
 Initialization pass.
 Trust Radius=3.00D-01 FncErr=1.00D-07 GrdErr=1.00D-07 EigMax=2.50D+02 EigMin=1.00D-04
 Number of steps in this run=      2 maximum allowed number of steps=      2.
 GradGradGradGradGradGradGradGradGradGradGradGradGradGradGradGradGradGrad

 Stoichiometry    C38H54B3F3IrN3O7
 Framework group  C1[X(C38H54B3F3IrN3O7)]
 Deg. of freedom   321
 Full point group                 C1      NOp   1
 Largest Abelian subgroup         C1      NOp   1
 Largest concise Abelian subgroup C1      NOp   1
                         Standard orientation:                         
 ---------------------------------------------------------------------
 Center     Atomic      Atomic             Coordinates (Angstroms)
 Number     Number       Type             X           Y           Z
 ---------------------------------------------------------------------
      1          6           0       -2.118721    1.145917   -1.207069
      2          6           0       -2.170681    1.131357    1.109861
      3          6           0       -3.285382    1.959666    1.147531
      4          6           0       -3.820732    2.384245   -0.058959
      5          6           0       -3.235162    1.978556   -1.249619
      6          6           0       -1.411301    0.702138   -2.426839
      7          6           0        0.438500   -0.397201   -3.305559
      8          6           0        0.051860   -0.105141   -4.606779
      9          6           0       -1.120941    0.609958   -4.809949
     10          6           0       -1.859061    1.018787   -3.709359
     11          1           0       -1.685671    0.770737    2.018501
     12          1           0       -3.653902    2.323375   -2.191899
     13          1           0        1.352851   -0.945350   -3.075279
     14          1           0       -1.460861    0.850948   -5.815059
     15          1           0       -2.780012    1.576726   -3.854269
     16          7           0       -1.608231    0.734197   -0.032389
     17          7           0       -0.279380   -0.008181   -2.245159
     18         77           0        0.354290   -0.472481   -0.130449
     19          8           0        2.970152   -1.873958    0.617751
     20          8           0        2.335019    0.585661    2.033751
     21          8           0        2.576849    1.523671   -1.058419
     22          5           0        1.075530    0.104420    1.704911
     23          5           0        2.154221   -1.362199   -0.381279
     24          5           0        1.381999    1.357010   -0.382659
     25          8           0        0.824188    2.592370   -0.065899
     26          8           0        2.742842   -1.581338   -1.629129
     27          6           0        3.954012   -2.331667   -1.434409
     28          6           0        4.277492   -2.038867    0.057831
     29          6           0        2.942367    2.912202   -0.985459
     30          6           0        1.562897    3.598880   -0.778779
     31          6           0        2.409809    0.687311    3.461961
     32          6           0        0.921719    0.911530    3.841251
     33          8           0        0.244870    0.144869    2.828931
     34          6           0        4.998523   -3.152536    0.789131
     35          1           0        5.973903   -3.359745    0.325321
     36          1           0        5.176553   -2.852936    1.830321
     37          1           0        4.411754   -4.077637    0.802341
     38          6           0        5.014471   -0.717776    0.252781
     39          1           0        4.980350   -0.449806    1.317841
     40          1           0        6.064991   -0.782285   -0.063139
     41          1           0        4.515430    0.089833   -0.299159
     42          6           0        3.630754   -3.796188   -1.694929
     43          1           0        3.194064   -3.890928   -2.698139
     44          1           0        4.528364   -4.427887   -1.652159
     45          1           0        2.900554   -4.175928   -0.967979
     46          6           0        4.994882   -1.841636   -2.420859
     47          1           0        5.971832   -2.306445   -2.223919
     48          1           0        4.696012   -2.107416   -3.443549
     49          1           0        5.104901   -0.752296   -2.372879
     50          6           0        2.965291   -0.635448    3.974751
     51          1           0        3.933961   -0.820007    3.492411
     52          1           0        3.115701   -0.623988    5.062821
     53          1           0        2.305111   -1.471819    3.711931
     54          6           0        3.345318    1.819532    3.833331
     55          1           0        3.400288    1.939672    4.924881
     56          1           0        4.355448    1.596043    3.463501
     57          1           0        3.031127    2.774092    3.394811
     58          6           0        0.523750    0.392549    5.206981
     59          1           0        1.097079    0.897090    5.998011
     60          1           0       -0.541491    0.588808    5.386161
     61          1           0        0.686391   -0.687410    5.290661
     62          6           0        0.478798    2.359959    3.672771
     63          1           0       -0.614422    2.411108    3.771041
     64          1           0        0.915037    3.015880    4.438201
     65          1           0        0.745447    2.741830    2.676071
     66          6           0        1.592845    4.868551    0.046831
     67          1           0        0.576515    5.271110    0.146271
     68          1           0        1.982316    4.683871    1.054891
     69          1           0        2.216665    5.636121   -0.433599
     70          6           0        0.818826    3.842980   -2.086639
     71          1           0       -0.215884    4.130879   -1.857199
     72          1           0        1.275376    4.647800   -2.678429
     73          1           0        0.790627    2.930950   -2.701079
     74          6           0        3.667367    3.290143   -2.260859
     75          1           0        3.903396    4.364053   -2.277509
     76          1           0        4.612417    2.734173   -2.320719
     77          1           0        3.078717    3.044622   -3.151809
     78          6           0        3.868927    3.074333    0.211031
     79          1           0        4.743768    2.424824    0.077761
     80          1           0        4.222926    4.108623    0.317941
     81          1           0        3.365407    2.761812    1.133951
     82          1           0        0.664920   -0.438870   -5.439939
     83          6           0       -2.951787   -3.502614   -0.167499
     84          6           0       -2.494296   -4.454253   -1.079719
     85          6           0       -2.108648   -2.456483    0.216291
     86          6           0       -1.189326   -4.382432   -1.548899
     87          6           0       -0.806288   -2.337902   -0.281809
     88          1           0       -2.485708   -1.702333    0.910611
     89          6           0       -0.350857   -3.346461   -1.142359
     90          1           0       -0.820165   -5.136702   -2.243629
     91          1           0        0.127492   -1.746901    0.893661
     92          1           0       -3.173355   -5.239944   -1.406069
     93          6           0       -4.381917   -3.582995    0.262751
     94          8           0       -5.257716   -3.845956   -0.550889
     95          7           0       -4.676587   -3.309445    1.580441
     96          6           0       -3.744847   -3.407225    2.683061
     97          1           0       -2.749876   -3.688834    2.332061
     98          1           0       -3.666268   -2.453695    3.228051
     99          1           0       -4.089936   -4.174775    3.393541
    100          6           0       -6.068647   -3.262567    1.970221
    101          1           0       -6.683557   -3.109847    1.081021
    102          1           0       -6.380466   -4.200947    2.455921
    103          1           0       -6.225428   -2.439327    2.681311
    104          1           0        0.668503   -3.301490   -1.530809
    105          1           0       -3.718032    2.265345    2.095811
    106          6           0       -5.011143    3.295894   -0.125439
    107          9           0       -5.509473    3.559854    1.082061
    108          9           0       -4.683214    4.459275   -0.698469
    109          9           0       -5.984263    2.756533   -0.865589
 ---------------------------------------------------------------------
 Rotational constants (GHZ):           0.0580149           0.0435810           0.0381525
 General basis read from cards:  (5D, 7F)
 ======================================================================================================
                                       Pseudopotential Parameters
 ======================================================================================================
  Center     Atomic      Valence      Angular      Power
  Number     Number     Electrons     Momentum     of R      Exponent        Coefficient   SO-Coeffient
 ======================================================================================================
    1          6
                                   No pseudopotential on this center.
    2          6
                                   No pseudopotential on this center.
    3          6
                                   No pseudopotential on this center.
    4          6
                                   No pseudopotential on this center.
    5          6
                                   No pseudopotential on this center.
    6          6
                                   No pseudopotential on this center.
    7          6
                                   No pseudopotential on this center.
    8          6
                                   No pseudopotential on this center.
    9          6
                                   No pseudopotential on this center.
   10          6
                                   No pseudopotential on this center.
   11          1
                                   No pseudopotential on this center.
   12          1
                                   No pseudopotential on this center.
   13          1
                                   No pseudopotential on this center.
   14          1
                                   No pseudopotential on this center.
   15          1
                                   No pseudopotential on this center.
   16          7
                                   No pseudopotential on this center.
   17          7
                                   No pseudopotential on this center.
   18         77           17
                                      G and up 
                                                     1      823.5880147       -0.15780140    0.00000000
                                                     2      364.6613336    -1517.52704460    0.00000000
                                                     2       55.7082801     -316.53065290    0.00000000
                                                     2       12.0464544      -91.88809410    0.00000000
                                                     2        3.5120610       -9.22417730    0.00000000
                                      S - G
                                                     0      188.0490770        3.15780140    0.00000000
                                                     1      340.4194712       26.83225770    0.00000000
                                                     2      128.2373673      800.42500070    0.00000000
                                                     2       33.8644961      369.40506830    0.00000000
                                                     2        4.7560005      242.41718990    0.00000000
                                                     2        3.9649974     -118.21732820    0.00000000
                                      P - G
                                                     0      289.7291139        2.15780140    0.00000000
                                                     1       87.4633789       61.96786100    0.00000000
                                                     2       30.4363766      269.05819860    0.00000000
                                                     2        4.0553412      231.16547930    0.00000000
                                                     2        3.5525341     -133.69526670    0.00000000
                                      D - G
                                                     0      136.4017106        3.15780140    0.00000000
                                                     1       95.0776925       45.93498030    0.00000000
                                                     2       49.2258410      359.03446680    0.00000000
                                                     2       15.0874145      176.47401190    0.00000000
                                                     2        4.0405764       54.51552860    0.00000000
                                      F - G
                                                     0      127.3507908        3.95461970    0.00000000
                                                     1       66.2364374       52.97736550    0.00000000
                                                     2       34.4299229      274.86433830    0.00000000
                                                     2       10.1995721      137.20473380    0.00000000
                                                     2        2.5409702       14.86333050    0.00000000
   19          8
                                   No pseudopotential on this center.
   20          8
                                   No pseudopotential on this center.
   21          8
                                   No pseudopotential on this center.
   22          5
                                   No pseudopotential on this center.
   23          5
                                   No pseudopotential on this center.
   24          5
                                   No pseudopotential on this center.
   25          8
                                   No pseudopotential on this center.
   26          8
                                   No pseudopotential on this center.
   27          6
                                   No pseudopotential on this center.
   28          6
                                   No pseudopotential on this center.
   29          6
                                   No pseudopotential on this center.
   30          6
                                   No pseudopotential on this center.
   31          6
                                   No pseudopotential on this center.
   32          6
                                   No pseudopotential on this center.
   33          8
                                   No pseudopotential on this center.
   34          6
                                   No pseudopotential on this center.
   35          1
                                   No pseudopotential on this center.
   36          1
                                   No pseudopotential on this center.
   37          1
                                   No pseudopotential on this center.
   38          6
                                   No pseudopotential on this center.
   39          1
                                   No pseudopotential on this center.
   40          1
                                   No pseudopotential on this center.
   41          1
                                   No pseudopotential on this center.
   42          6
                                   No pseudopotential on this center.
   43          1
                                   No pseudopotential on this center.
   44          1
                                   No pseudopotential on this center.
   45          1
                                   No pseudopotential on this center.
   46          6
                                   No pseudopotential on this center.
   47          1
                                   No pseudopotential on this center.
   48          1
                                   No pseudopotential on this center.
   49          1
                                   No pseudopotential on this center.
   50          6
                                   No pseudopotential on this center.
   51          1
                                   No pseudopotential on this center.
   52          1
                                   No pseudopotential on this center.
   53          1
                                   No pseudopotential on this center.
   54          6
                                   No pseudopotential on this center.
   55          1
                                   No pseudopotential on this center.
   56          1
                                   No pseudopotential on this center.
   57          1
                                   No pseudopotential on this center.
   58          6
                                   No pseudopotential on this center.
   59          1
                                   No pseudopotential on this center.
   60          1
                                   No pseudopotential on this center.
   61          1
                                   No pseudopotential on this center.
   62          6
                                   No pseudopotential on this center.
   63          1
                                   No pseudopotential on this center.
   64          1
                                   No pseudopotential on this center.
   65          1
                                   No pseudopotential on this center.
   66          6
                                   No pseudopotential on this center.
   67          1
                                   No pseudopotential on this center.
   68          1
                                   No pseudopotential on this center.
   69          1
                                   No pseudopotential on this center.
   70          6
                                   No pseudopotential on this center.
   71          1
                                   No pseudopotential on this center.
   72          1
                                   No pseudopotential on this center.
   73          1
                                   No pseudopotential on this center.
   74          6
                                   No pseudopotential on this center.
   75          1
                                   No pseudopotential on this center.
   76          1
                                   No pseudopotential on this center.
   77          1
                                   No pseudopotential on this center.
   78          6
                                   No pseudopotential on this center.
   79          1
                                   No pseudopotential on this center.
   80          1
                                   No pseudopotential on this center.
   81          1
                                   No pseudopotential on this center.
   82          1
                                   No pseudopotential on this center.
   83          6
                                   No pseudopotential on this center.
   84          6
                                   No pseudopotential on this center.
   85          6
                                   No pseudopotential on this center.
   86          6
                                   No pseudopotential on this center.
   87          6
                                   No pseudopotential on this center.
   88          1
                                   No pseudopotential on this center.
   89          6
                                   No pseudopotential on this center.
   90          1
                                   No pseudopotential on this center.
   91          1
                                   No pseudopotential on this center.
   92          1
                                   No pseudopotential on this center.
   93          6
                                   No pseudopotential on this center.
   94          8
                                   No pseudopotential on this center.
   95          7
                                   No pseudopotential on this center.
   96          6
                                   No pseudopotential on this center.
   97          1
                                   No pseudopotential on this center.
   98          1
                                   No pseudopotential on this center.
   99          1
                                   No pseudopotential on this center.
  100          6
                                   No pseudopotential on this center.
  101          1
                                   No pseudopotential on this center.
  102          1
                                   No pseudopotential on this center.
  103          1
                                   No pseudopotential on this center.
  104          1
                                   No pseudopotential on this center.
  105          1
                                   No pseudopotential on this center.
  106          6
                                   No pseudopotential on this center.
  107          9
                                   No pseudopotential on this center.
  108          9
                                   No pseudopotential on this center.
  109          9
                                   No pseudopotential on this center.
 ======================================================================================================
 There are   942 symmetry adapted cartesian basis functions of A   symmetry.
 There are   886 symmetry adapted basis functions of A   symmetry.
   886 basis functions,  1771 primitive gaussians,   942 cartesian basis functions
   209 alpha electrons      209 beta electrons
       nuclear repulsion energy      9206.4418747303 Hartrees.
 NAtoms=  109 NActive=  109 NUniq=  109 SFac= 1.00D+00 NAtFMM=   60 NAOKFM=T Big=T
 Integral buffers will be    131072 words long.
 Raffenetti 2 integral format.
 Two-electron integral symmetry is turned on.
 One-electron integrals computed using PRISM.
   1 Symmetry operations used in ECPInt.
 ECPInt:  NShTT=   55278 NPrTT=  342696 LenC2=   40780 LenP2D=  125289.
 LDataN:  DoStor=T MaxTD1= 6 Len=  172
 NBasis=   886 RedAO= T EigKep=  4.46D-04  NBF=   886
 NBsUse=   886 1.00D-06 EigRej= -1.00D+00 NBFU=   886
 Defaulting to unpruned grid for atomic number  77.
 ExpMin= 2.90D-02 ExpMax= 7.00D+03 ExpMxC= 1.05D+03 IAcc=3 IRadAn=         5 AccDes= 0.00D+00
 Harris functional with IExCor= 1009 and IRadAn=       5 diagonalized for initial guess.
 HarFok:  IExCor= 1009 AccDes= 0.00D+00 IRadAn=         5 IDoV= 1 UseB2=F ITyADJ=14
 ICtDFT=  3500011 ScaDFX=  1.000000  1.000000  1.000000  1.000000
 Defaulting to unpruned grid for atomic number  77.
 FoFCou: FMM=F IPFlag=           0 FMFlag=      100000 FMFlg1=        2001
         NFxFlg=           0 DoJE=T BraDBF=F KetDBF=T FulRan=T
         wScrn=  0.000000 ICntrl=       500 IOpCl=  0 I1Cent=   200000004 NGrid=           0
         NMat0=    1 NMatS0=      1 NMatT0=    0 NMatD0=    1 NMtDS0=    0 NMtDT0=    0
 Petite list used in FoFCou.
 Requested convergence on RMS density matrix=1.00D-08 within 128 cycles.
 Requested convergence on MAX density matrix=1.00D-06.
 Requested convergence on             energy=1.00D-06.
 No special actions if energy rises.
 Defaulting to unpruned grid for atomic number  77.
 Defaulting to unpruned grid for atomic number  77.
 Defaulting to unpruned grid for atomic number  77.
 Defaulting to unpruned grid for atomic number  77.
 Defaulting to unpruned grid for atomic number  77.
 Defaulting to unpruned grid for atomic number  77.
 Defaulting to unpruned grid for atomic number  77.
 Defaulting to unpruned grid for atomic number  77.
 Defaulting to unpruned grid for atomic number  77.
 Defaulting to unpruned grid for atomic number  77.
 Defaulting to unpruned grid for atomic number  77.
 Defaulting to unpruned grid for atomic number  77.
 Defaulting to unpruned grid for atomic number  77.
 Defaulting to unpruned grid for atomic number  77.
 Defaulting to unpruned grid for atomic number  77.
 Defaulting to unpruned grid for atomic number  77.
 SCF Done:  E(RM06) =  -2648.90107956     A.U. after   15 cycles
            NFock= 15  Conv=0.49D-08     -V/T= 2.0341
 DoSCS=F DFT=T ScalE2(SS,OS)=  1.000000  1.000000
 Range of M.O.s used for correlation:     1   886
 NBasis=   886 NAE=   209 NBE=   209 NFC=     0 NFV=     0
 NROrb=    886 NOA=   209 NOB=   209 NVA=   677 NVB=   677

 **** Warning!!: The largest alpha MO coefficient is  0.12919432D+02

   1 Symmetry operations used in ECPInt.
 ECPInt:  NShTT=   55278 NPrTT=  342696 LenC2=   40780 LenP2D=  125289.
 LDataN:  DoStor=T MaxTD1= 7 Len=  274
 Number of processors reduced to   7 by ecpmxn.
 Symmetrizing basis deriv contribution to polar:
 IMax=3 JMax=2 DiffMx= 0.00D+00
 G2DrvN: will do   110 centers at a time, making    1 passes.
 Calling FoFCou, ICntrl=  3107 FMM=T I1Cent=   0 AccDes= 0.00D+00.
 Defaulting to unpruned grid for atomic number  77.
 Defaulting to unpruned grid for atomic number  77.
 Defaulting to unpruned grid for atomic number  77.
 Defaulting to unpruned grid for atomic number  77.
 Defaulting to unpruned grid for atomic number  77.
 Defaulting to unpruned grid for atomic number  77.
 Defaulting to unpruned grid for atomic number  77.
 Defaulting to unpruned grid for atomic number  77.
 Defaulting to unpruned grid for atomic number  77.
 Defaulting to unpruned grid for atomic number  77.
 Defaulting to unpruned grid for atomic number  77.
 Defaulting to unpruned grid for atomic number  77.
 Defaulting to unpruned grid for atomic number  77.
 Defaulting to unpruned grid for atomic number  77.
 Defaulting to unpruned grid for atomic number  77.
 Defaulting to unpruned grid for atomic number  77.
 End of G2Drv F.D. properties file   721 does not exist.
 End of G2Drv F.D. properties file   722 does not exist.
 End of G2Drv F.D. properties file   788 does not exist.
          IDoAtm=11111111111111111111111111111111111111111111111111
          IDoAtm=11111111111111111111111111111111111111111111111111
          IDoAtm=111111111
          Differentiating once with respect to electric field.
                with respect to dipole field.
          Differentiating once with respect to nuclear coordinates.
 Defaulting to unpruned grid for atomic number  77.
 CalDSu exits because no D1Ps are significant.
 Defaulting to unpruned grid for atomic number  77.
 Defaulting to unpruned grid for atomic number  77.
 Defaulting to unpruned grid for atomic number  77.
 Defaulting to unpruned grid for atomic number  77.
 Defaulting to unpruned grid for atomic number  77.
 Defaulting to unpruned grid for atomic number  77.
 Defaulting to unpruned grid for atomic number  77.
 Defaulting to unpruned grid for atomic number  77.
 Defaulting to unpruned grid for atomic number  77.
 Defaulting to unpruned grid for atomic number  77.
 Defaulting to unpruned grid for atomic number  77.
 Defaulting to unpruned grid for atomic number  77.
 Defaulting to unpruned grid for atomic number  77.
 Defaulting to unpruned grid for atomic number  77.
 Defaulting to unpruned grid for atomic number  77.
 Defaulting to unpruned grid for atomic number  77.
          There are   330 degrees of freedom in the 1st order CPHF.  IDoFFX=6 NUNeed=     3.
    327 vectors produced by pass  0 Test12= 1.41D-13 1.00D-09 XBig12= 4.88D+02 8.98D+00.
 AX will form    72 AO Fock derivatives at one time.
    327 vectors produced by pass  1 Test12= 1.41D-13 1.00D-09 XBig12= 8.97D+01 1.09D+00.
    327 vectors produced by pass  2 Test12= 1.41D-13 1.00D-09 XBig12= 1.02D+00 8.37D-02.
    327 vectors produced by pass  3 Test12= 1.41D-13 1.00D-09 XBig12= 7.99D-03 5.38D-03.
    327 vectors produced by pass  4 Test12= 1.41D-13 1.00D-09 XBig12= 2.93D-05 3.27D-04.
    293 vectors produced by pass  5 Test12= 1.41D-13 1.00D-09 XBig12= 5.90D-08 1.75D-05.
     92 vectors produced by pass  6 Test12= 1.41D-13 1.00D-09 XBig12= 9.17D-11 6.84D-07.
      3 vectors produced by pass  7 Test12= 1.41D-13 1.00D-09 XBig12= 1.25D-13 2.56D-08.
      1 vectors produced by pass  8 Test12= 1.41D-13 1.00D-09 XBig12= 1.63D-16 1.04D-09.
 InvSVY:  IOpt=1 It=  1 EMax= 7.11D-15
 Solved reduced A of dimension  2024 with   330 vectors.
 Isotropic polarizability for W=    0.000000      517.03 Bohr**3.
 End of Minotr F.D. properties file   721 does not exist.
 End of Minotr F.D. properties file   722 does not exist.
 End of Minotr F.D. properties file   788 does not exist.
 Hyperfine terms turned off by default for NAtoms > 100.

 **********************************************************************

            Population analysis using the SCF Density.

 **********************************************************************

 Orbital symmetries:
       Occupied  (A) (A) (A) (A) (A) (A) (A) (A) (A) (A) (A) (A)
                 (A) (A) (A) (A) (A) (A) (A) (A) (A) (A) (A) (A)
                 (A) (A) (A) (A) (A) (A) (A) (A) (A) (A) (A) (A)
                 (A) (A) (A) (A) (A) (A) (A) (A) (A) (A) (A) (A)
                 (A) (A) (A) (A) (A) (A) (A) (A) (A) (A) (A) (A)
                 (A) (A) (A) (A) (A) (A) (A) (A) (A) (A) (A) (A)
                 (A) (A) (A) (A) (A) (A) (A) (A) (A) (A) (A) (A)
                 (A) (A) (A) (A) (A) (A) (A) (A) (A) (A) (A) (A)
                 (A) (A) (A) (A) (A) (A) (A) (A) (A) (A) (A) (A)
                 (A) (A) (A) (A) (A) (A) (A) (A) (A) (A) (A) (A)
                 (A) (A) (A) (A) (A) (A) (A) (A) (A) (A) (A) (A)
                 (A) (A) (A) (A) (A) (A) (A) (A) (A) (A) (A) (A)
                 (A) (A) (A) (A) (A) (A) (A) (A) (A) (A) (A) (A)
                 (A) (A) (A) (A) (A) (A) (A) (A) (A) (A) (A) (A)
                 (A) (A) (A) (A) (A) (A) (A) (A) (A) (A) (A) (A)
                 (A) (A) (A) (A) (A) (A) (A) (A) (A) (A) (A) (A)
                 (A) (A) (A) (A) (A) (A) (A) (A) (A) (A) (A) (A)
                 (A) (A) (A) (A) (A)
       Virtual   (A) (A) (A) (A) (A) (A) (A) (A) (A) (A) (A) (A)
                 (A) (A) (A) (A) (A) (A) (A) (A) (A) (A) (A) (A)
                 (A) (A) (A) (A) (A) (A) (A) (A) (A) (A) (A) (A)
                 (A) (A) (A) (A) (A) (A) (A) (A) (A) (A) (A) (A)
                 (A) (A) (A) (A) (A) (A) (A) (A) (A) (A) (A) (A)
                 (A) (A) (A) (A) (A) (A) (A) (A) (A) (A) (A) (A)
                 (A) (A) (A) (A) (A) (A) (A) (A) (A) (A) (A) (A)
                 (A) (A) (A) (A) (A) (A) (A) (A) (A) (A) (A) (A)
                 (A) (A) (A) (A) (A) (A) (A) (A) (A) (A) (A) (A)
                 (A) (A) (A) (A) (A) (A) (A) (A) (A) (A) (A) (A)
                 (A) (A) (A) (A) (A) (A) (A) (A) (A) (A) (A) (A)
                 (A) (A) (A) (A) (A) (A) (A) (A) (A) (A) (A) (A)
                 (A) (A) (A) (A) (A) (A) (A) (A) (A) (A) (A) (A)
                 (A) (A) (A) (A) (A) (A) (A) (A) (A) (A) (A) (A)
                 (A) (A) (A) (A) (A) (A) (A) (A) (A) (A) (A) (A)
                 (A) (A) (A) (A) (A) (A) (A) (A) (A) (A) (A) (A)
                 (A) (A) (A) (A) (A) (A) (A) (A) (A) (A) (A) (A)
                 (A) (A) (A) (A) (A) (A) (A) (A) (A) (A) (A) (A)
                 (A) (A) (A) (A) (A) (A) (A) (A) (A) (A) (A) (A)
                 (A) (A) (A) (A) (A) (A) (A) (A) (A) (A) (A) (A)
                 (A) (A) (A) (A) (A) (A) (A) (A) (A) (A) (A) (A)
                 (A) (A) (A) (A) (A) (A) (A) (A) (A) (A) (A) (A)
                 (A) (A) (A) (A) (A) (A) (A) (A) (A) (A) (A) (A)
                 (A) (A) (A) (A) (A) (A) (A) (A) (A) (A) (A) (A)
                 (A) (A) (A) (A) (A) (A) (A) (A) (A) (A) (A) (A)
                 (A) (A) (A) (A) (A) (A) (A) (A) (A) (A) (A) (A)
                 (A) (A) (A) (A) (A) (A) (A) (A) (A) (A) (A) (A)
                 (A) (A) (A) (A) (A) (A) (A) (A) (A) (A) (A) (A)
                 (A) (A) (A) (A) (A) (A) (A) (A) (A) (A) (A) (A)
                 (A) (A) (A) (A) (A) (A) (A) (A) (A) (A) (A) (A)
                 (A) (A) (A) (A) (A) (A) (A) (A) (A) (A) (A) (A)
                 (A) (A) (A) (A) (A) (A) (A) (A) (A) (A) (A) (A)
                 (A) (A) (A) (A) (A) (A) (A) (A) (A) (A) (A) (A)
                 (A) (A) (A) (A) (A) (A) (A) (A) (A) (A) (A) (A)
                 (A) (A) (A) (A) (A) (A) (A) (A) (A) (A) (A) (A)
                 (A) (A) (A) (A) (A) (A) (A) (A) (A) (A) (A) (A)
                 (A) (A) (A) (A) (A) (A) (A) (A) (A) (A) (A) (A)
                 (A) (A) (A) (A) (A) (A) (A) (A) (A) (A) (A) (A)
                 (A) (A) (A) (A) (A) (A) (A) (A) (A) (A) (A) (A)
                 (A) (A) (A) (A) (A) (A) (A) (A) (A) (A) (A) (A)
                 (A) (A) (A) (A) (A) (A) (A) (A) (A) (A) (A) (A)
                 (A) (A) (A) (A) (A) (A) (A) (A) (A) (A) (A) (A)
                 (A) (A) (A) (A) (A) (A) (A) (A) (A) (A) (A) (A)
                 (A) (A) (A) (A) (A) (A) (A) (A) (A) (A) (A) (A)
                 (A) (A) (A) (A) (A) (A) (A) (A) (A) (A) (A) (A)
                 (A) (A) (A) (A) (A) (A) (A) (A) (A) (A) (A) (A)
                 (A) (A) (A) (A) (A) (A) (A) (A) (A) (A) (A) (A)
                 (A) (A) (A) (A) (A) (A) (A) (A) (A) (A) (A) (A)
                 (A) (A) (A) (A) (A) (A) (A) (A) (A) (A) (A) (A)
                 (A) (A) (A) (A) (A) (A) (A) (A) (A) (A) (A) (A)
                 (A) (A) (A) (A) (A) (A) (A) (A) (A) (A) (A) (A)
                 (A) (A) (A) (A) (A) (A) (A) (A) (A) (A) (A) (A)
                 (A) (A) (A) (A) (A) (A) (A) (A) (A) (A) (A) (A)
                 (A) (A) (A) (A) (A) (A) (A) (A) (A) (A) (A) (A)
                 (A) (A) (A) (A) (A) (A) (A) (A) (A) (A) (A) (A)
                 (A) (A) (A) (A) (A) (A) (A) (A) (A) (A) (A) (A)
                 (A) (A) (A) (A) (A)
 The electronic state is 1-A.
 Alpha  occ. eigenvalues --  -24.84003 -24.83442 -24.83402 -19.21062 -19.21035
 Alpha  occ. eigenvalues --  -19.20758 -19.20557 -19.20304 -19.19408 -19.17586
 Alpha  occ. eigenvalues --  -14.45703 -14.45266 -14.41746 -10.52106 -10.33437
 Alpha  occ. eigenvalues --  -10.33048 -10.32773 -10.30984 -10.30912 -10.30424
 Alpha  occ. eigenvalues --  -10.30008 -10.29872 -10.29716 -10.29663 -10.29619
 Alpha  occ. eigenvalues --  -10.29414 -10.29210 -10.29048 -10.28837 -10.28831
 Alpha  occ. eigenvalues --  -10.28162 -10.27017 -10.26053 -10.24537 -10.24163
 Alpha  occ. eigenvalues --  -10.23600 -10.23485 -10.23480 -10.23472 -10.23367
 Alpha  occ. eigenvalues --  -10.23337 -10.23264 -10.23263 -10.23245 -10.22971
 Alpha  occ. eigenvalues --  -10.22708 -10.22505 -10.22433 -10.22352 -10.22303
 Alpha  occ. eigenvalues --  -10.21374  -6.81153  -6.80319  -6.79238  -3.63708
 Alpha  occ. eigenvalues --   -2.06215  -2.06024  -2.04642  -1.36580  -1.28088
 Alpha  occ. eigenvalues --   -1.27538  -1.06904  -1.06692  -1.05886  -1.03612
 Alpha  occ. eigenvalues --   -1.00743  -0.99825  -0.99808  -0.98887  -0.98263
 Alpha  occ. eigenvalues --   -0.93508  -0.87264  -0.84892  -0.84442  -0.83605
 Alpha  occ. eigenvalues --   -0.81012  -0.80843  -0.80115  -0.78292  -0.75523
 Alpha  occ. eigenvalues --   -0.75441  -0.75389  -0.75330  -0.74531  -0.73618
 Alpha  occ. eigenvalues --   -0.71752  -0.71033  -0.70761  -0.70141  -0.69990
 Alpha  occ. eigenvalues --   -0.68872  -0.68571  -0.68240  -0.68030  -0.67322
 Alpha  occ. eigenvalues --   -0.65954  -0.65305  -0.62527  -0.62467  -0.62405
 Alpha  occ. eigenvalues --   -0.61867  -0.61265  -0.60819  -0.60433  -0.59270
 Alpha  occ. eigenvalues --   -0.55815  -0.55260  -0.55174  -0.54547  -0.54343
 Alpha  occ. eigenvalues --   -0.54173  -0.53960  -0.53560  -0.53105  -0.52758
 Alpha  occ. eigenvalues --   -0.51803  -0.51267  -0.50790  -0.49914  -0.49519
 Alpha  occ. eigenvalues --   -0.48303  -0.48061  -0.47763  -0.47493  -0.47354
 Alpha  occ. eigenvalues --   -0.47309  -0.47092  -0.46864  -0.46789  -0.46741
 Alpha  occ. eigenvalues --   -0.46554  -0.46013  -0.45914  -0.45487  -0.45307
 Alpha  occ. eigenvalues --   -0.45116  -0.44862  -0.44322  -0.44144  -0.44105
 Alpha  occ. eigenvalues --   -0.44009  -0.43791  -0.43315  -0.43201  -0.43051
 Alpha  occ. eigenvalues --   -0.42294  -0.41728  -0.41371  -0.40712  -0.40537
 Alpha  occ. eigenvalues --   -0.40509  -0.40395  -0.40276  -0.40182  -0.40115
 Alpha  occ. eigenvalues --   -0.40097  -0.39934  -0.39807  -0.39737  -0.39614
 Alpha  occ. eigenvalues --   -0.39567  -0.39283  -0.38920  -0.38720  -0.38451
 Alpha  occ. eigenvalues --   -0.38068  -0.38011  -0.37334  -0.37197  -0.37158
 Alpha  occ. eigenvalues --   -0.37027  -0.36888  -0.36643  -0.36407  -0.36264
 Alpha  occ. eigenvalues --   -0.36207  -0.35732  -0.35649  -0.35418  -0.35317
 Alpha  occ. eigenvalues --   -0.34554  -0.34415  -0.34220  -0.33828  -0.33628
 Alpha  occ. eigenvalues --   -0.32878  -0.32851  -0.32482  -0.32351  -0.32139
 Alpha  occ. eigenvalues --   -0.31691  -0.31408  -0.30936  -0.30457  -0.30096
 Alpha  occ. eigenvalues --   -0.29903  -0.28097  -0.27507  -0.26986  -0.26655
 Alpha  occ. eigenvalues --   -0.26186  -0.25831  -0.25334  -0.24249  -0.24003
 Alpha  occ. eigenvalues --   -0.23043  -0.22672  -0.22507  -0.21389
 Alpha virt. eigenvalues --   -0.07838  -0.05294  -0.03818  -0.00385   0.00833
 Alpha virt. eigenvalues --    0.00960   0.03346   0.04583   0.05704   0.06086
 Alpha virt. eigenvalues --    0.06703   0.06871   0.07554   0.08076   0.08736
 Alpha virt. eigenvalues --    0.09201   0.09698   0.10049   0.10444   0.10857
 Alpha virt. eigenvalues --    0.11197   0.11265   0.11676   0.11945   0.12559
 Alpha virt. eigenvalues --    0.13077   0.13115   0.13530   0.13891   0.14226
 Alpha virt. eigenvalues --    0.14329   0.14606   0.14834   0.14945   0.15120
 Alpha virt. eigenvalues --    0.15326   0.15504   0.15629   0.15689   0.15756
 Alpha virt. eigenvalues --    0.15851   0.16030   0.16335   0.16555   0.16748
 Alpha virt. eigenvalues --    0.16942   0.17165   0.17418   0.17492   0.17714
 Alpha virt. eigenvalues --    0.18036   0.18098   0.18348   0.18445   0.18695
 Alpha virt. eigenvalues --    0.18864   0.19156   0.19344   0.19404   0.19701
 Alpha virt. eigenvalues --    0.19829   0.19882   0.20074   0.20333   0.20559
 Alpha virt. eigenvalues --    0.20665   0.20830   0.21000   0.21365   0.21573
 Alpha virt. eigenvalues --    0.21913   0.22120   0.22196   0.22440   0.22630
 Alpha virt. eigenvalues --    0.23035   0.23284   0.23599   0.23849   0.23949
 Alpha virt. eigenvalues --    0.24048   0.24457   0.24645   0.24940   0.25094
 Alpha virt. eigenvalues --    0.25411   0.25608   0.25898   0.26192   0.26597
 Alpha virt. eigenvalues --    0.26783   0.26876   0.27357   0.27754   0.28141
 Alpha virt. eigenvalues --    0.28264   0.28691   0.29698   0.30007   0.30700
 Alpha virt. eigenvalues --    0.30748   0.30827   0.31320   0.31713   0.32468
 Alpha virt. eigenvalues --    0.32692   0.33280   0.33406   0.34046   0.34834
 Alpha virt. eigenvalues --    0.35136   0.35419   0.35712   0.36188   0.36750
 Alpha virt. eigenvalues --    0.37459   0.38445   0.38949   0.39888   0.40438
 Alpha virt. eigenvalues --    0.41551   0.42516   0.43030   0.43585   0.44953
 Alpha virt. eigenvalues --    0.45989   0.46585   0.47312   0.47870   0.48331
 Alpha virt. eigenvalues --    0.48585   0.48891   0.48985   0.49790   0.49815
 Alpha virt. eigenvalues --    0.50046   0.50369   0.51168   0.51302   0.51645
 Alpha virt. eigenvalues --    0.52068   0.52311   0.52650   0.52999   0.53293
 Alpha virt. eigenvalues --    0.53941   0.54758   0.55030   0.55695   0.55761
 Alpha virt. eigenvalues --    0.56056   0.56206   0.56309   0.56597   0.56867
 Alpha virt. eigenvalues --    0.57173   0.57320   0.57504   0.57666   0.57779
 Alpha virt. eigenvalues --    0.57898   0.58430   0.58468   0.58632   0.58975
 Alpha virt. eigenvalues --    0.59110   0.59418   0.59755   0.59934   0.60081
 Alpha virt. eigenvalues --    0.60171   0.60369   0.60868   0.61007   0.61314
 Alpha virt. eigenvalues --    0.62233   0.62521   0.62800   0.63099   0.63244
 Alpha virt. eigenvalues --    0.63517   0.64100   0.64245   0.64621   0.65074
 Alpha virt. eigenvalues --    0.65569   0.65839   0.66115   0.66644   0.66858
 Alpha virt. eigenvalues --    0.67406   0.67798   0.67888   0.68316   0.68844
 Alpha virt. eigenvalues --    0.69284   0.69786   0.69936   0.70175   0.70388
 Alpha virt. eigenvalues --    0.70508   0.70762   0.71253   0.71712   0.71909
 Alpha virt. eigenvalues --    0.72154   0.72380   0.72674   0.72933   0.73147
 Alpha virt. eigenvalues --    0.73369   0.73477   0.74192   0.74399   0.74703
 Alpha virt. eigenvalues --    0.74954   0.75579   0.75846   0.76225   0.76355
 Alpha virt. eigenvalues --    0.76713   0.77161   0.77413   0.77738   0.78210
 Alpha virt. eigenvalues --    0.78420   0.79039   0.79388   0.79619   0.80164
 Alpha virt. eigenvalues --    0.80615   0.81193   0.81470   0.81718   0.82291
 Alpha virt. eigenvalues --    0.82577   0.82960   0.83168   0.83343   0.83396
 Alpha virt. eigenvalues --    0.83708   0.84022   0.84353   0.84596   0.84932
 Alpha virt. eigenvalues --    0.85160   0.85423   0.85493   0.85941   0.86084
 Alpha virt. eigenvalues --    0.86175   0.86284   0.86554   0.86807   0.87341
 Alpha virt. eigenvalues --    0.87561   0.88011   0.88126   0.88501   0.88596
 Alpha virt. eigenvalues --    0.88683   0.89254   0.89371   0.89598   0.89871
 Alpha virt. eigenvalues --    0.90008   0.90142   0.90428   0.90682   0.91254
 Alpha virt. eigenvalues --    0.91491   0.91676   0.91806   0.91896   0.92031
 Alpha virt. eigenvalues --    0.92383   0.92647   0.93184   0.93486   0.93916
 Alpha virt. eigenvalues --    0.94038   0.94443   0.94555   0.95052   0.95520
 Alpha virt. eigenvalues --    0.95731   0.95845   0.96007   0.96517   0.96689
 Alpha virt. eigenvalues --    0.97002   0.97320   0.97642   0.98286   0.98620
 Alpha virt. eigenvalues --    0.99144   0.99515   1.00286   1.00520   1.01072
 Alpha virt. eigenvalues --    1.01351   1.01584   1.02245   1.03180   1.03431
 Alpha virt. eigenvalues --    1.03538   1.04005   1.04451   1.04821   1.05215
 Alpha virt. eigenvalues --    1.05681   1.06283   1.06807   1.07802   1.07982
 Alpha virt. eigenvalues --    1.08448   1.08581   1.09299   1.09733   1.09938
 Alpha virt. eigenvalues --    1.10981   1.11653   1.12205   1.12247   1.13350
 Alpha virt. eigenvalues --    1.13575   1.14055   1.14412   1.15668   1.15963
 Alpha virt. eigenvalues --    1.16329   1.16514   1.16851   1.17385   1.17985
 Alpha virt. eigenvalues --    1.18415   1.19026   1.19558   1.19647   1.20286
 Alpha virt. eigenvalues --    1.20806   1.21338   1.21520   1.21960   1.22692
 Alpha virt. eigenvalues --    1.23460   1.23913   1.24261   1.24754   1.25645
 Alpha virt. eigenvalues --    1.26126   1.27144   1.27653   1.28089   1.28275
 Alpha virt. eigenvalues --    1.28803   1.29788   1.30952   1.31918   1.32510
 Alpha virt. eigenvalues --    1.32889   1.33319   1.33413   1.33576   1.33657
 Alpha virt. eigenvalues --    1.35046   1.35736   1.36397   1.36824   1.37416
 Alpha virt. eigenvalues --    1.37727   1.37908   1.38408   1.39017   1.39234
 Alpha virt. eigenvalues --    1.39778   1.40408   1.40692   1.40978   1.41307
 Alpha virt. eigenvalues --    1.42142   1.42797   1.43268   1.43788   1.44351
 Alpha virt. eigenvalues --    1.44679   1.44940   1.45198   1.45860   1.46248
 Alpha virt. eigenvalues --    1.46364   1.46856   1.47284   1.48225   1.48402
 Alpha virt. eigenvalues --    1.49307   1.49670   1.50337   1.50546   1.50792
 Alpha virt. eigenvalues --    1.51632   1.52228   1.53134   1.53540   1.53957
 Alpha virt. eigenvalues --    1.55107   1.55728   1.55931   1.57230   1.58212
 Alpha virt. eigenvalues --    1.58571   1.59310   1.60214   1.60782   1.61469
 Alpha virt. eigenvalues --    1.62618   1.63810   1.64085   1.64476   1.64936
 Alpha virt. eigenvalues --    1.65479   1.65713   1.66147   1.66644   1.67591
 Alpha virt. eigenvalues --    1.68274   1.69336   1.69774   1.70130   1.70328
 Alpha virt. eigenvalues --    1.71399   1.71858   1.72484   1.72697   1.74944
 Alpha virt. eigenvalues --    1.75506   1.76025   1.76833   1.77311   1.77957
 Alpha virt. eigenvalues --    1.78161   1.78257   1.78785   1.79051   1.79809
 Alpha virt. eigenvalues --    1.80195   1.81026   1.81317   1.81602   1.81808
 Alpha virt. eigenvalues --    1.81969   1.82362   1.83015   1.83551   1.83999
 Alpha virt. eigenvalues --    1.84240   1.84636   1.85404   1.86068   1.86411
 Alpha virt. eigenvalues --    1.86870   1.86957   1.87357   1.87835   1.87991
 Alpha virt. eigenvalues --    1.88640   1.89169   1.89606   1.90125   1.90828
 Alpha virt. eigenvalues --    1.90954   1.91519   1.91648   1.91721   1.91991
 Alpha virt. eigenvalues --    1.92171   1.92496   1.92647   1.92795   1.93301
 Alpha virt. eigenvalues --    1.93424   1.93702   1.93857   1.94557   1.95138
 Alpha virt. eigenvalues --    1.95594   1.95898   1.96860   1.97130   1.97514
 Alpha virt. eigenvalues --    1.97816   1.98303   1.99623   1.99942   2.00649
 Alpha virt. eigenvalues --    2.01262   2.01704   2.01851   2.02117   2.02516
 Alpha virt. eigenvalues --    2.02675   2.03132   2.03639   2.04370   2.04396
 Alpha virt. eigenvalues --    2.05109   2.05274   2.05613   2.05805   2.06107
 Alpha virt. eigenvalues --    2.06509   2.06903   2.07494   2.07531   2.07752
 Alpha virt. eigenvalues --    2.08324   2.08748   2.09023   2.09479   2.09570
 Alpha virt. eigenvalues --    2.09976   2.10193   2.10549   2.10788   2.11367
 Alpha virt. eigenvalues --    2.12173   2.12388   2.12720   2.13508   2.14194
 Alpha virt. eigenvalues --    2.14589   2.14672   2.14893   2.15055   2.15387
 Alpha virt. eigenvalues --    2.16086   2.16226   2.16624   2.16935   2.17440
 Alpha virt. eigenvalues --    2.17601   2.17845   2.18210   2.18482   2.19121
 Alpha virt. eigenvalues --    2.19260   2.19818   2.20287   2.20680   2.20862
 Alpha virt. eigenvalues --    2.21021   2.21266   2.21514   2.21890   2.22289
 Alpha virt. eigenvalues --    2.23182   2.23476   2.23941   2.24600   2.25136
 Alpha virt. eigenvalues --    2.25499   2.26142   2.26306   2.26567   2.26983
 Alpha virt. eigenvalues --    2.27407   2.27814   2.28332   2.29437   2.30427
 Alpha virt. eigenvalues --    2.30740   2.30820   2.31463   2.31591   2.31961
 Alpha virt. eigenvalues --    2.32201   2.32832   2.33155   2.33959   2.34439
 Alpha virt. eigenvalues --    2.34889   2.35980   2.36824   2.37236   2.38051
 Alpha virt. eigenvalues --    2.38282   2.38699   2.39338   2.40480   2.40863
 Alpha virt. eigenvalues --    2.42264   2.43201   2.44042   2.44744   2.45963
 Alpha virt. eigenvalues --    2.47395   2.47803   2.48549   2.49285   2.49443
 Alpha virt. eigenvalues --    2.50013   2.50430   2.50969   2.51624   2.52472
 Alpha virt. eigenvalues --    2.53187   2.56418   2.57134   2.58529   2.59441
 Alpha virt. eigenvalues --    2.59600   2.59872   2.60642   2.61189   2.61602
 Alpha virt. eigenvalues --    2.62144   2.63628   2.64623   2.64933   2.65103
 Alpha virt. eigenvalues --    2.65385   2.65929   2.67769   2.68066   2.68692
 Alpha virt. eigenvalues --    2.70364   2.71078   2.73589   2.74172   2.76013
 Alpha virt. eigenvalues --    2.76251   2.77698   2.77977   2.78758   2.78851
 Alpha virt. eigenvalues --    2.79673   2.80027   2.80143   2.80561   2.80965
 Alpha virt. eigenvalues --    2.81236   2.81945   2.82308   2.83334   2.83795
 Alpha virt. eigenvalues --    2.84230   2.84676   2.86135   2.88243   2.89769
 Alpha virt. eigenvalues --    2.90940   2.92105   2.93144   2.94653   2.94739
 Alpha virt. eigenvalues --    2.95599   2.96588   2.98061   2.98496   3.02340
 Alpha virt. eigenvalues --    3.03175   3.04198   3.04509   3.05671   3.08042
 Alpha virt. eigenvalues --    3.08522   3.11086   3.11830   3.13011   3.14180
 Alpha virt. eigenvalues --    3.15466   3.20536   3.27146   3.30910   3.39013
 Alpha virt. eigenvalues --    3.44613  14.64235
          Condensed to atoms (all electrons):
 Mulliken charges:
               1
     1  C    0.305985
     2  C    0.044628
     3  C   -0.196437
     4  C   -0.030172
     5  C   -0.210123
     6  C    0.303664
     7  C    0.051799
     8  C   -0.173886
     9  C   -0.136998
    10  C   -0.183151
    11  H    0.223672
    12  H    0.189615
    13  H    0.242747
    14  H    0.186873
    15  H    0.177743
    16  N   -0.453132
    17  N   -0.501495
    18  Ir  -0.236254
    19  O   -0.507352
    20  O   -0.523800
    21  O   -0.499513
    22  B    0.509374
    23  B    0.515366
    24  B    0.515731
    25  O   -0.521638
    26  O   -0.545772
    27  C    0.303852
    28  C    0.287695
    29  C    0.289020
    30  C    0.296295
    31  C    0.292315
    32  C    0.299818
    33  O   -0.527801
    34  C   -0.512939
    35  H    0.147432
    36  H    0.166726
    37  H    0.171315
    38  C   -0.497127
    39  H    0.155923
    40  H    0.138777
    41  H    0.184769
    42  C   -0.511328
    43  H    0.160744
    44  H    0.153546
    45  H    0.176771
    46  C   -0.508704
    47  H    0.149850
    48  H    0.159954
    49  H    0.175809
    50  C   -0.501847
    51  H    0.164996
    52  H    0.146403
    53  H    0.187527
    54  C   -0.505884
    55  H    0.153724
    56  H    0.167692
    57  H    0.160942
    58  C   -0.513901
    59  H    0.153099
    60  H    0.163220
    61  H    0.177814
    62  C   -0.511184
    63  H    0.150213
    64  H    0.152996
    65  H    0.186006
    66  C   -0.508371
    67  H    0.169268
    68  H    0.166659
    69  H    0.152712
    70  C   -0.500503
    71  H    0.162071
    72  H    0.155329
    73  H    0.157113
    74  C   -0.508619
    75  H    0.150016
    76  H    0.168483
    77  H    0.167308
    78  C   -0.497705
    79  H    0.164859
    80  H    0.146062
    81  H    0.174156
    82  H    0.186854
    83  C    0.052951
    84  C   -0.185113
    85  C   -0.182107
    86  C   -0.154837
    87  C   -0.128662
    88  H    0.137609
    89  C   -0.163326
    90  H    0.148787
    91  H    0.258238
    92  H    0.170337
    93  C    0.500261
    94  O   -0.508992
    95  N   -0.399767
    96  C   -0.376388
    97  H    0.205606
    98  H    0.170682
    99  H    0.168949
   100  C   -0.368124
   101  H    0.214801
   102  H    0.167236
   103  H    0.161263
   104  H    0.139211
   105  H    0.198306
   106  C    0.968447
   107  F   -0.312759
   108  F   -0.310765
   109  F   -0.309538
 Sum of Mulliken charges =  -0.00000
 Mulliken charges with hydrogens summed into heavy atoms:
               1
     1  C    0.305985
     2  C    0.268299
     3  C    0.001869
     4  C   -0.030172
     5  C   -0.020508
     6  C    0.303664
     7  C    0.294547
     8  C    0.012968
     9  C    0.049875
    10  C   -0.005409
    16  N   -0.453132
    17  N   -0.501495
    18  Ir  -0.236254
    19  O   -0.507352
    20  O   -0.523800
    21  O   -0.499513
    22  B    0.509374
    23  B    0.515366
    24  B    0.515731
    25  O   -0.521638
    26  O   -0.545772
    27  C    0.303852
    28  C    0.287695
    29  C    0.289020
    30  C    0.296295
    31  C    0.292315
    32  C    0.299818
    33  O   -0.527801
    34  C   -0.027465
    38  C   -0.017658
    42  C   -0.020268
    46  C   -0.023090
    50  C   -0.002921
    54  C   -0.023526
    58  C   -0.019768
    62  C   -0.021969
    66  C   -0.019732
    70  C   -0.025990
    74  C   -0.022813
    78  C   -0.012628
    83  C    0.052951
    84  C   -0.014776
    85  C   -0.044499
    86  C   -0.006050
    87  C    0.129576
    89  C   -0.024114
    93  C    0.500261
    94  O   -0.508992
    95  N   -0.399767
    96  C    0.168848
   100  C    0.175175
   106  C    0.968447
   107  F   -0.312759
   108  F   -0.310765
   109  F   -0.309538
 APT charges:
               1
     1  C    0.203233
     2  C    0.051280
     3  C   -0.078599
     4  C   -0.037452
     5  C   -0.163603
     6  C    0.166421
     7  C    0.038949
     8  C   -0.066011
     9  C    0.118594
    10  C   -0.169581
    11  H    0.126017
    12  H    0.061883
    13  H    0.154579
    14  H    0.034053
    15  H    0.042870
    16  N   -0.196348
    17  N   -0.141123
    18  Ir  -1.126493
    19  O   -0.960489
    20  O   -0.998385
    21  O   -0.943075
    22  B    1.334805
    23  B    1.287536
    24  B    1.232417
    25  O   -0.932477
    26  O   -1.035612
    27  C    0.525437
    28  C    0.481256
    29  C    0.463904
    30  C    0.448002
    31  C    0.490627
    32  C    0.493308
    33  O   -0.982224
    34  C   -0.000514
    35  H   -0.019755
    36  H   -0.004320
    37  H   -0.001456
    38  C   -0.032415
    39  H   -0.000778
    40  H   -0.033176
    41  H    0.029989
    42  C   -0.038094
    43  H    0.000745
    44  H   -0.025656
    45  H    0.009045
    46  C   -0.015099
    47  H   -0.019268
    48  H   -0.005416
    49  H    0.007156
    50  C   -0.028185
    51  H   -0.005041
    52  H   -0.028147
    53  H    0.016790
    54  C   -0.011133
    55  H   -0.017672
    56  H    0.006069
    57  H    0.000906
    58  C   -0.009674
    59  H   -0.014998
    60  H   -0.003923
    61  H    0.005880
    62  C   -0.032511
    63  H   -0.009177
    64  H   -0.018915
    65  H    0.020573
    66  C    0.002807
    67  H   -0.001899
    68  H   -0.003312
    69  H   -0.016384
    70  C   -0.032734
    71  H   -0.001362
    72  H   -0.016230
    73  H   -0.003930
    74  C   -0.003684
    75  H   -0.016033
    76  H    0.002932
    77  H   -0.002440
    78  C   -0.033437
    79  H    0.004112
    80  H   -0.027993
    81  H    0.026731
    82  H    0.040894
    83  C   -0.147077
    84  C   -0.066974
    85  C   -0.135813
    86  C   -0.004410
    87  C    0.231785
    88  H    0.038137
    89  C   -0.116465
    90  H   -0.010679
    91  H    0.326803
    92  H    0.040422
    93  C    1.169389
    94  O   -0.825562
    95  N   -0.780190
    96  C    0.276676
    97  H    0.041801
    98  H   -0.031852
    99  H   -0.055609
   100  C    0.324732
   101  H    0.062538
   102  H   -0.061925
   103  H   -0.035193
   104  H    0.040892
   105  H    0.071820
   106  C    1.803153
   107  F   -0.557258
   108  F   -0.583275
   109  F   -0.579428
 Sum of APT charges =  -0.00000
 APT charges with hydrogens summed into heavy atoms:
               1
     1  C    0.203233
     2  C    0.177296
     3  C   -0.006780
     4  C   -0.037452
     5  C   -0.101721
     6  C    0.166421
     7  C    0.193529
     8  C   -0.025117
     9  C    0.152646
    10  C   -0.126711
    16  N   -0.196348
    17  N   -0.141123
    18  Ir  -1.126493
    19  O   -0.960489
    20  O   -0.998385
    21  O   -0.943075
    22  B    1.334805
    23  B    1.287536
    24  B    1.232417
    25  O   -0.932477
    26  O   -1.035612
    27  C    0.525437
    28  C    0.481256
    29  C    0.463904
    30  C    0.448002
    31  C    0.490627
    32  C    0.493308
    33  O   -0.982224
    34  C   -0.026044
    38  C   -0.036380
    42  C   -0.053960
    46  C   -0.032627
    50  C   -0.044583
    54  C   -0.021830
    58  C   -0.022715
    62  C   -0.040031
    66  C   -0.018790
    70  C   -0.054255
    74  C   -0.019225
    78  C   -0.030587
    83  C   -0.147077
    84  C   -0.026552
    85  C   -0.097676
    86  C   -0.015090
    87  C    0.558589
    89  C   -0.075573
    93  C    1.169389
    94  O   -0.825562
    95  N   -0.780190
    96  C    0.231016
   100  C    0.290152
   106  C    1.803153
   107  F   -0.557258
   108  F   -0.583275
   109  F   -0.579428
 Electronic spatial extent (au):  <R**2>=          33262.7250
 Charge=             -0.0000 electrons
 Dipole moment (field-independent basis, Debye):
    X=              1.9441    Y=              4.1082    Z=             -0.9088  Tot=              4.6349
 Quadrupole moment (field-independent basis, Debye-Ang):
   XX=           -348.8109   YY=           -341.3865   ZZ=           -299.6321
   XY=            -11.7903   XZ=            -10.6730   YZ=             -7.6632
 Traceless Quadrupole moment (field-independent basis, Debye-Ang):
   XX=            -18.8677   YY=            -11.4433   ZZ=             30.3111
   XY=            -11.7903   XZ=            -10.6730   YZ=             -7.6632
 Octapole moment (field-independent basis, Debye-Ang**2):
  XXX=            123.9151  YYY=             28.1983  ZZZ=            -82.9826  XYY=             82.1711
  XXY=             50.8604  XXZ=             68.5047  XZZ=            -45.4821  YZZ=             20.6733
  YYZ=              9.2179  XYZ=             66.5110
 Hexadecapole moment (field-independent basis, Debye-Ang**3):
 XXXX=         -20406.7302 YYYY=         -13337.6592 ZZZZ=          -8933.2165 XXXY=           -685.0074
 XXXZ=           -457.0593 YYYX=           -317.2393 YYYZ=            -72.0735 ZZZX=            135.2020
 ZZZY=            -32.0521 XXYY=          -5861.6854 XXZZ=          -4765.0417 YYZZ=          -3774.8332
 XXYZ=           -261.4956 YYXZ=           -225.5286 ZZXY=           -122.1607
 N-N= 9.206441874730D+03 E-N=-2.457169018757D+04  KE= 2.561570823437D+03
  Exact polarizability:     558.118     -15.028     479.056     -17.596      19.559     513.906
 Approx polarizability:     779.904     -50.553     675.806     -34.038      45.884     792.183
   1 Symmetry operations used in ECPInt.
 ECPInt:  NShTT=   55278 NPrTT=  342696 LenC2=   40780 LenP2D=  125289.
 LDataN:  DoStor=T MaxTD1= 8 Len=  415
 Calling FoFJK, ICntrl=    100127 FMM=F ISym2X=0 I1Cent= 0 IOpClX= 0 NMat=1 NMatS=1 NMatT=0.
 Defaulting to unpruned grid for atomic number  77.
 Defaulting to unpruned grid for atomic number  77.
 Defaulting to unpruned grid for atomic number  77.
 Defaulting to unpruned grid for atomic number  77.
 Defaulting to unpruned grid for atomic number  77.
 Defaulting to unpruned grid for atomic number  77.
 Defaulting to unpruned grid for atomic number  77.
 Defaulting to unpruned grid for atomic number  77.
 Defaulting to unpruned grid for atomic number  77.
 Defaulting to unpruned grid for atomic number  77.
 Defaulting to unpruned grid for atomic number  77.
 Defaulting to unpruned grid for atomic number  77.
 Defaulting to unpruned grid for atomic number  77.
 Defaulting to unpruned grid for atomic number  77.
 Defaulting to unpruned grid for atomic number  77.
 Defaulting to unpruned grid for atomic number  77.
 Full mass-weighted force constant matrix:
 Low frequencies --- -735.5135   -4.8392   -3.0098   -0.0005   -0.0003    0.0003
 Low frequencies ---    4.8103    9.8424   12.1160
 ******    1 imaginary frequencies (negative Signs) ****** 
 Diagonal vibrational polarizability:
      169.4130488     195.1615701      59.1232960
 Harmonic frequencies (cm**-1), IR intensities (KM/Mole), Raman scattering
 activities (A**4/AMU), depolarization ratios for plane and unpolarized
 incident light, reduced masses (AMU), force constants (mDyne/A),
 and normal coordinates:
                      1                      2                      3
                      A                      A                      A
 Frequencies --   -735.5134                 9.4517                11.9039
 Red. masses --      1.1415                 8.9325                 5.2804
 Frc consts  --      0.3638                 0.0005                 0.0004
 IR Inten    --    731.4542                 0.0604                 0.2923
  Atom AN      X      Y      Z        X      Y      Z        X      Y      Z
     1   6     0.00   0.00   0.00    -0.00  -0.01   0.01     0.01   0.03  -0.04
     2   6    -0.00  -0.00  -0.00     0.00  -0.01   0.01    -0.02   0.01  -0.04
     3   6     0.00   0.00  -0.00     0.05   0.06   0.01    -0.01   0.02  -0.04
     4   6    -0.00   0.00  -0.00     0.08   0.10   0.01     0.00   0.03  -0.04
     5   6    -0.00   0.00  -0.00     0.05   0.06   0.01     0.01   0.04  -0.04
     6   6     0.00   0.00   0.01    -0.03  -0.05   0.01     0.02   0.03  -0.03
     7   6     0.00   0.00   0.00    -0.04  -0.07   0.00     0.02   0.03  -0.02
     8   6    -0.00  -0.00   0.00    -0.06  -0.09   0.00     0.04   0.05  -0.02
     9   6     0.00  -0.00   0.00    -0.07  -0.10   0.01     0.04   0.06  -0.03
    10   6     0.00  -0.00   0.00    -0.05  -0.08   0.01     0.03   0.05  -0.03
    11   1    -0.01  -0.00   0.00    -0.02  -0.04   0.01    -0.03   0.00  -0.03
    12   1    -0.00  -0.00   0.00     0.08   0.10   0.01     0.03   0.05  -0.04
    13   1     0.00   0.00   0.00    -0.04  -0.06   0.00     0.01   0.03  -0.02
    14   1     0.00   0.00   0.00    -0.09  -0.13   0.01     0.05   0.07  -0.03
    15   1    -0.00  -0.01   0.01    -0.06  -0.09   0.01     0.04   0.06  -0.04
    16   7    -0.00   0.00   0.00    -0.02  -0.04   0.01    -0.01   0.01  -0.03
    17   7     0.01   0.01   0.01    -0.02  -0.04   0.01     0.01   0.03  -0.03
    18  77    -0.00  -0.01   0.00    -0.01  -0.03   0.01    -0.01   0.01  -0.02
    19   8    -0.00   0.00  -0.00     0.02   0.03   0.00    -0.03  -0.01  -0.01
    20   8     0.00   0.00  -0.00    -0.03   0.01  -0.00    -0.03  -0.02   0.01
    21   8     0.00   0.00   0.00    -0.05   0.01   0.00     0.01   0.00   0.02
    22   5     0.01   0.04   0.00    -0.02  -0.02   0.00    -0.03  -0.01  -0.01
    23   5    -0.00  -0.01  -0.01     0.01   0.01   0.00    -0.01   0.00  -0.02
    24   5     0.01   0.01   0.01    -0.05  -0.01   0.00    -0.00   0.01  -0.00
    25   8     0.00   0.00   0.00    -0.07  -0.02  -0.01     0.00   0.01  -0.00
    26   8    -0.00   0.00  -0.00     0.00   0.02   0.00    -0.00   0.01  -0.01
    27   6    -0.00  -0.00  -0.00     0.02   0.04  -0.00    -0.01   0.00  -0.01
    28   6    -0.00   0.00   0.00     0.02   0.06  -0.00    -0.02  -0.02  -0.00
    29   6     0.00   0.00  -0.00    -0.08   0.02  -0.00     0.02   0.00   0.04
    30   6     0.00   0.00  -0.00    -0.09  -0.01  -0.01     0.02   0.01   0.02
    31   6     0.00  -0.00   0.00    -0.02   0.01  -0.00    -0.05  -0.03   0.01
    32   6     0.00   0.00  -0.00    -0.03  -0.03   0.01    -0.05  -0.02  -0.01
    33   8     0.00   0.00  -0.01    -0.01  -0.04   0.01    -0.04  -0.01  -0.02
    34   6    -0.00   0.00   0.00     0.05   0.07  -0.00    -0.04  -0.03  -0.00
    35   1    -0.00   0.00  -0.00     0.05   0.09  -0.01    -0.04  -0.04   0.00
    36   1     0.00  -0.00   0.00     0.05   0.08  -0.00    -0.05  -0.04   0.00
    37   1    -0.00   0.00  -0.00     0.07   0.06   0.00    -0.05  -0.03  -0.02
    38   6    -0.00   0.00   0.00    -0.01   0.07  -0.01    -0.01  -0.03   0.02
    39   1     0.00  -0.00   0.00    -0.01   0.08  -0.01    -0.02  -0.04   0.02
    40   1    -0.00  -0.00  -0.00    -0.01   0.09  -0.01    -0.01  -0.03   0.03
    41   1     0.00   0.00  -0.00    -0.02   0.06  -0.01    -0.00  -0.02   0.03
    42   6    -0.00   0.00   0.00     0.05   0.04   0.00    -0.02   0.01  -0.03
    43   1    -0.00  -0.00   0.00     0.05   0.02   0.01    -0.01   0.02  -0.03
    44   1     0.00   0.00   0.00     0.07   0.06   0.00    -0.03  -0.00  -0.02
    45   1    -0.00   0.00  -0.00     0.07   0.02   0.01    -0.03   0.01  -0.04
    46   6    -0.00   0.00   0.00     0.01   0.06  -0.01     0.00   0.00   0.01
    47   1    -0.00  -0.00   0.00     0.02   0.09  -0.01    -0.00  -0.01   0.01
    48   1    -0.00  -0.00   0.00     0.01   0.05  -0.01     0.01   0.02   0.00
    49   1     0.00   0.00  -0.00    -0.02   0.07  -0.01     0.01   0.00   0.02
    50   6     0.00  -0.00  -0.00     0.01   0.02  -0.01    -0.06  -0.04   0.00
    51   1     0.00  -0.00   0.00     0.02   0.05  -0.01    -0.06  -0.04   0.01
    52   1    -0.00  -0.00  -0.00     0.01   0.02  -0.01    -0.07  -0.05   0.00
    53   1     0.00  -0.00  -0.00     0.04   0.01  -0.01    -0.07  -0.03  -0.01
    54   6     0.00  -0.00  -0.00    -0.05   0.03  -0.00    -0.04  -0.04   0.03
    55   1    -0.00  -0.00  -0.00    -0.04   0.03  -0.00    -0.05  -0.05   0.03
    56   1     0.00  -0.00   0.00    -0.04   0.06  -0.01    -0.04  -0.05   0.04
    57   1    -0.00  -0.00  -0.00    -0.07   0.03   0.00    -0.03  -0.04   0.04
    58   6    -0.00  -0.00  -0.00    -0.01  -0.04   0.01    -0.07  -0.03  -0.02
    59   1     0.00   0.00  -0.00    -0.02  -0.03   0.01    -0.07  -0.04  -0.01
    60   1    -0.00  -0.00  -0.00    -0.01  -0.07   0.01    -0.07  -0.02  -0.03
    61   1    -0.00  -0.00  -0.00     0.02  -0.04   0.00    -0.08  -0.03  -0.02
    62   6    -0.00   0.00  -0.00    -0.06  -0.04   0.02    -0.04  -0.02  -0.00
    63   1     0.00  -0.00   0.00    -0.06  -0.06   0.03    -0.04  -0.01  -0.02
    64   1     0.00  -0.00   0.00    -0.07  -0.03   0.02    -0.04  -0.03   0.01
    65   1    -0.00   0.00   0.00    -0.08  -0.03   0.02    -0.02  -0.01   0.00
    66   6     0.00   0.00  -0.00    -0.13  -0.00  -0.02     0.02   0.00   0.03
    67   1     0.00   0.00  -0.00    -0.14  -0.02  -0.03     0.02   0.01   0.02
    68   1     0.00   0.00  -0.00    -0.13   0.02  -0.02    -0.00  -0.01   0.04
    69   1    -0.00   0.00   0.00    -0.14   0.01  -0.03     0.03   0.00   0.05
    70   6    -0.00   0.00  -0.00    -0.09  -0.04  -0.02     0.05   0.03   0.01
    71   1    -0.00  -0.00  -0.00    -0.10  -0.05  -0.03     0.05   0.04  -0.01
    72   1    -0.00   0.00  -0.00    -0.10  -0.03  -0.02     0.07   0.03   0.02
    73   1     0.00   0.00  -0.00    -0.07  -0.04  -0.01     0.05   0.03  -0.00
    74   6     0.00   0.00  -0.00    -0.08   0.03   0.00     0.04   0.01   0.05
    75   1     0.00   0.00  -0.00    -0.10   0.03  -0.00     0.05   0.00   0.06
    76   1     0.00   0.00  -0.00    -0.07   0.05   0.01     0.04  -0.00   0.06
    77   1     0.00   0.00  -0.00    -0.07   0.01  -0.00     0.06   0.02   0.04
    78   6     0.00   0.00  -0.00    -0.09   0.05   0.00     0.00  -0.01   0.05
    79   1     0.00   0.00  -0.00    -0.08   0.06   0.02    -0.00  -0.02   0.06
    80   1     0.00   0.00   0.00    -0.11   0.06  -0.00     0.01  -0.02   0.07
    81   1     0.00   0.00   0.00    -0.09   0.05   0.00    -0.02  -0.02   0.04
    82   1    -0.00  -0.01   0.01    -0.07  -0.11   0.00     0.04   0.05  -0.02
    83   6     0.01  -0.00   0.01     0.03  -0.07  -0.02     0.01  -0.02   0.05
    84   6    -0.00  -0.00   0.00     0.05  -0.07  -0.00    -0.01  -0.00   0.02
    85   6     0.01   0.01  -0.01     0.01  -0.06  -0.01     0.01  -0.02   0.03
    86   6    -0.00  -0.01   0.01     0.06  -0.06   0.02    -0.03   0.02  -0.03
    87   6    -0.01   0.04  -0.07     0.02  -0.05   0.00    -0.01   0.01  -0.02
    88   1    -0.02   0.03  -0.04    -0.00  -0.05  -0.03     0.03  -0.03   0.06
    89   6    -0.01   0.01  -0.01     0.04  -0.05   0.02    -0.03   0.03  -0.05
    90   1    -0.00  -0.02   0.01     0.08  -0.07   0.03    -0.05   0.04  -0.06
    91   1     0.52   0.60   0.60     0.01  -0.03   0.01    -0.00   0.00  -0.03
    92   1    -0.01   0.01  -0.01     0.07  -0.08  -0.00    -0.02  -0.01   0.04
    93   6     0.00  -0.00  -0.00     0.02  -0.08  -0.04     0.03  -0.06   0.12
    94   8     0.00   0.00   0.00     0.04  -0.09  -0.05    -0.00  -0.06   0.16
    95   7    -0.00   0.00   0.00     0.00  -0.07  -0.04     0.10  -0.10   0.15
    96   6    -0.00   0.00  -0.00    -0.01  -0.05  -0.03     0.16  -0.11   0.09
    97   1    -0.00   0.00  -0.00    -0.01  -0.04  -0.01     0.15  -0.07   0.03
    98   1    -0.00   0.00   0.00    -0.03  -0.04  -0.04     0.15  -0.13   0.12
    99   1     0.00  -0.00   0.00    -0.02  -0.04  -0.03     0.22  -0.15   0.08
   100   6     0.00  -0.00  -0.00    -0.00  -0.08  -0.07     0.12  -0.15   0.22
   101   1     0.00  -0.00  -0.00     0.01  -0.09  -0.08     0.06  -0.14   0.26
   102   1    -0.00   0.00   0.00    -0.00  -0.08  -0.06     0.16  -0.17   0.21
   103   1    -0.00   0.00  -0.00    -0.02  -0.07  -0.08     0.13  -0.18   0.26
   104   1    -0.02   0.01  -0.05     0.05  -0.04   0.03    -0.05   0.04  -0.09
   105   1    -0.00  -0.00  -0.00     0.07   0.09   0.01    -0.02   0.02  -0.04
   106   6    -0.00  -0.00  -0.00     0.14   0.18   0.01     0.01   0.05  -0.05
   107   9     0.00   0.00   0.00     0.18   0.24   0.02     0.01   0.06  -0.05
   108   9     0.00   0.00  -0.00     0.22   0.15  -0.01     0.03   0.04  -0.06
   109   9     0.00   0.00   0.00     0.10   0.24   0.04     0.01   0.05  -0.05
                      4                      5                      6
                      A                      A                      A
 Frequencies --     20.7074                23.3739                26.9988
 Red. masses --      3.6196                 4.4127                 5.3535
 Frc consts  --      0.0009                 0.0014                 0.0023
 IR Inten    --      0.0514                 0.3568                 1.9129
  Atom AN      X      Y      Z        X      Y      Z        X      Y      Z
     1   6    -0.01  -0.01   0.00     0.01  -0.02  -0.03    -0.00  -0.04  -0.01
     2   6    -0.00   0.01   0.00     0.01  -0.01  -0.03     0.03   0.03  -0.01
     3   6    -0.00   0.01  -0.00     0.01  -0.01  -0.03     0.03   0.03  -0.02
     4   6    -0.01  -0.00  -0.00     0.01  -0.01  -0.03     0.01  -0.01  -0.02
     5   6    -0.01  -0.01  -0.00     0.01  -0.02  -0.03    -0.01  -0.05  -0.02
     6   6    -0.02  -0.02   0.00     0.02  -0.02  -0.02    -0.01  -0.07  -0.00
     7   6    -0.02  -0.02  -0.00     0.02  -0.01  -0.02     0.01  -0.03   0.00
     8   6    -0.04  -0.05  -0.00     0.03  -0.01  -0.02    -0.02  -0.09   0.00
     9   6    -0.05  -0.07  -0.00     0.03  -0.01  -0.02    -0.06  -0.15  -0.01
    10   6    -0.04  -0.05   0.00     0.02  -0.01  -0.03    -0.05  -0.14  -0.01
    11   1     0.00   0.02   0.00     0.00  -0.01  -0.03     0.04   0.06  -0.00
[...]
 0003301,-0.00002496,-0.00004244,0.00002114,0.00006542,0.00006214,-0.00
 000961,0.00002477,0.00004124,0.00000141,0.00000369,-0.00005784,0.00002
 526,0.00000058,0.00001246,-0.00004177,0.00001354,0.00001470,-0.0000091
 7,-0.00077574,-0.00051568,0.00000305,-0.02532669,-0.26174947,0.0811383
 5,-0.01351092,0.00562781,0.02846332,0.07966012,0.34661430,-0.00154947,
 -0.00032897,0.00009036,0.00009074,-0.00112319,0.00008611,-0.00073525,-
 0.00007494,0.00019983,0.00161376,0.01610002,0.00326566,-0.00047391,-0.
 00050773,-0.00214537,-0.00003956,0.00007520,-0.00031125,0.00003209,-0.
 00001194,0.00002988,-0.00004839,0.00002224,0.00001954,0.00004095,-0.00
 005772,-0.00000863,-0.00019766,0.00005529,0.00007129,0.00004715,0.0001
 1309,0.00004737,0.00034865,0.00127319,0.00122600,-0.00001233,0.0000098
 5,-0.00000575,-0.00000752,0.00001769,0.00003398,0.00004819,0.00007229,
 0.00002163,0.00031028,0.00034705,0.00111019,-0.00002418,0.00004264,0.0
 0013626,-0.00043744,0.00010432,0.00001846,-0.00017699,0.00006310,0.000
 00129,-0.00013460,-0.00006510,-0.00003367,-0.00012110,-0.00022646,0.00
 008827,0.00021979,0.00004076,0.00003312,0.00031694,-0.00007666,-0.0000
 6621,0.00027454,0.00039621,-0.00013299,-0.00009217,-0.00039096,0.00014
 425,-0.00017091,0.00005722,0.00009503,0.00005564,-0.00003365,0.0000048
 0,0.00007550,-0.00000157,-0.00002834,-0.00000740,0.00011594,0.00002581
 ,0.00007403,0.00017569,-0.00020884,0.00003574,0.00000745,0.00001720,0.
 00003105,0.00002880,0.00005342,-0.00015936,0.00000200,-0.00003551,-0.0
 0001062,-0.00000260,0.00000068,-0.00000884,0.00000442,0.00000197,0.000
 00327,0.,-0.00000198,0.00000280,-0.00000319,0.00000013,-0.00001349,-0.
 00000271,-0.00000338,0.00000611,0.00000036,0.00000080,-0.00001237,-0.0
 0000122,0.00000327,0.00000491,0.00000622,-0.00000034,-0.00001043,0.000
 00638,-0.00000485,0.00000506,-0.00000119,0.00000007,-0.00000731,0.0000
 0683,0.00000007,0.00000079,-0.00000796,0.00000499,-0.00000725,0.000008
 19,-0.00000047,-0.00000820,0.00000064,0.00000214,0.00000271,0.00000184
 ,0.00000594,0.00000050,-0.00000361,-0.00000337,-0.00000967,-0.00000090
 ,-0.00000013,-0.00000858,0.00000360,0.00000397,0.00000205,0.00000067,-
 0.00000473,0.00000285,-0.00000885,0.00000048,-0.00001272,0.00001058,0.
 00000103,0.00000222,-0.00000408,-0.00000102,-0.00001242,0.00000325,0.0
 0000153,0.00000991,-0.00000241,-0.00000420,0.00001629,-0.00000887,-0.0
 0000891,-0.00000683,-0.00000452,-0.00000736,-0.00001069,0.00000263,0.0
 0001064,0.00000028,0.00000258,0.00000348,0.00004942,-0.00000244,-0.000
 02500,-0.00002526,-0.00000130,0.00002183,-0.00001282,-0.00000225,-0.00
 001198,0.00000522,0.00001182,0.00000087,-0.00004494,-0.00000615,0.0000
 2605,0.00001849,0.00000060,-0.00004038,0.00002936,-0.00000233,0.000019
 86,-0.00001652,-0.00001616,0.00000144,-0.00008499,0.00001509,0.0000887
 3,0.00002790,0.00002478,-0.00004994,-0.00001709,-0.00002035,0.00002043
 ,0.00002079,-0.00000466,-0.00001368,-0.00000235,-0.00001166,-0.0000016
 3,-0.00001373,-0.00001462,0.00000141,0.00001042,-0.00000101,0.00000522
 ,-0.00000174,0.00001474,0.00001254,0.00001810,-0.00003133,-0.00000833,
 0.00001371,0.00000099,0.00000325,-0.00001249,-0.00001259,-0.00000373,0
 .00000071,0.00001369,0.00000425,0.00000571,0.00000625,0.00000732,-0.00
 001256,-0.00000922,-0.00000245,-0.00001014,0.00000487,0.00000959,0.000
 03641,0.00000357,-0.00002860,0.00001355,0.00000585,0.00000378,0.000021
 12,-0.00010023,-0.00003595,-0.00000743,-0.00000822,0.00003313,0.000004
 46,-0.00000407,-0.00000965,-0.00000437,0.00001083,0.00000817,0.0000133
 0,-0.00000617,0.00002522,0.00000441,0.00000532,0.00000076,-0.00002260,
 -0.00005741,-0.00014677,0.00004901,0.00003678,0.00008279,-0.00001127,0
 .00008144,0.00007347,-0.00001170,-0.00005281,-0.00001439,-0.00000111,0
 .00000124,0.00000508,0.00000738,0.00001056,0.00001988,0.00000921,0.000
 01146,0.00000136,0.00001077,-0.00004508,-0.00002651,-0.00000685,-0.000
 01459,-0.00001079,-0.00000826,0.00002232,-0.00000079,-0.00000462,0.000
 00373,0.00003205,-0.00000909,-0.00000090,-0.00000003,0.00069684,0.0001
 3522,0.00037813,0.01424678,0.08416011,-0.11420897,0.02810774,0.0446128
 9,-0.05155040,-0.03710644,-0.12947601,0.14352844,0.00152223,0.00001886
 ,-0.00072540,0.00046258,0.00210446,-0.00121706,-0.00475127,0.00221750,
 0.00474400,-0.03666087,-0.01171889,-0.03236476,-0.00039488,0.00103986,
 -0.00161058,0.00002027,-0.00006739,-0.00057841,0.00004827,-0.00003286,
 0.00020923,-0.00018920,0.00011549,-0.00000377,0.00009551,-0.00003252,-
 0.00017594,-0.00026192,0.00024017,0.00037576,-0.00020578,0.00026557,0.
 00029268,-0.00202713,-0.00039090,0.00069267,0.00001182,-0.00000784,0.0
 0002231,-0.00002238,-0.00000787,0.00007141,-0.00007483,-0.00006708,-0.
 00013796,-0.00049863,-0.00011569,-0.00029685,-0.00011039,-0.00001192,0
 .00022062,-0.00081607,0.00037728,-0.00005101,-0.00054759,0.00025349,-0
 .00006558,-0.00033546,-0.00010571,-0.00031410,-0.00038700,-0.00019141,
 0.00015384,0.00051029,-0.00001741,0.00033694,0.00089604,-0.00031325,-0
 .00003064,0.00073998,0.00015650,-0.00026877,-0.00039646,-0.00019905,0.
 00013481,-0.00056140,0.00029518,0.00019698,0.00020356,-0.00017886,0.00
 001890,0.00019993,-0.00003845,-0.00007514,0.00011454,0.00011918,0.0000
 0288,0.00015297,0.00020681,-0.00011733,0.00006693,-0.00000981,0.000168
 70,0.00012062,0.00009441,0.00027124,-0.00042242,0.00003517,-0.00039871
 ,-0.00002501,-0.00000272,-0.00000005,-0.00002684,0.00001222,0.00000639
 ,0.00000550,-0.00000499,-0.00001171,0.00001121,0.00000614,0.00000194,-
 0.00002481,0.00000189,0.00001465,0.00001803,-0.00000457,0.00000036,-0.
 00003752,-0.00000231,0.00000988,0.00002216,0.00000465,-0.00001025,-0.0
 0003080,0.00002607,-0.00000110,0.00001219,-0.00001011,0.00000563,-0.00
 002616,0.00002886,-0.00000008,0.00000458,-0.00001977,-0.00000094,-0.00
 002802,0.00002118,-0.00000147,-0.00003309,0.00000804,0.00000164,0.0000
 1196,-0.00000474,0.00001413,0.00001577,0.00000160,-0.00000569,-0.00002
 126,0.00000756,-0.00001045,-0.00001158,0.00000621,0.00001101,-0.000006
 38,0.00000216,-0.00003576,0.00000834,-0.00001772,0.00001384,-0.0000238
 1,0.00000430,-0.00000102,0.00000165,-0.00000642,-0.00002600,-0.0000202
 3,0.00000047,0.00001252,0.00001317,0.00001322,0.00000333,-0.00000479,0
 .00000130,-0.00002304,-0.00001692,-0.00001062,-0.00002877,0.00000701,-
 0.00000763,0.00002522,-0.00000632,0.00002178,0.00000118,0.00003967,-0.
 00001004,-0.00004648,-0.00004236,0.00000414,0.00008683,-0.00004738,-0.
 00001576,-0.00003899,0.00005940,0.00002624,-0.00000344,0.00003498,-0.0
 0004477,0.00000377,-0.00000184,0.00004696,-0.00000566,0.00000337,0.000
 01052,-0.00001127,-0.00003696,-0.00002354,0.00001946,0.00007908,-0.000
 04749,0.00000508,-0.00002491,0.00006358,-0.00002026,-0.00005339,-0.000
 03229,0.00002211,0.00001079,0.00000791,-0.00002232,-0.00002619,0.00000
 585,0.00000212,-0.00000020,-0.00002425,0.00000095,-0.00002453,0.000016
 85,0.00000382,0.00001507,0.00000331,-0.00001124,-0.00001926,-0.0000030
 6,0.00000030,-0.00001723,0.00001802,-0.00000013,-0.00000614,-0.0000263
 5,-0.00000747,0.00001426,0.00000468,0.00001651,-0.00002289,-0.00000009
 ,0.00001546,0.00011180,0.00001807,-0.00011657,0.00004572,0.00010114,0.
 00008957,0.00009288,0.00015742,-0.00003361,0.00002473,0.00003306,-0.00
 001117,0.00010862,-0.00051244,0.00001702,-0.00007496,-0.00011877,0.000
 06411,0.00015705,0.00008077,-0.00003039,0.00000804,0.00003178,0.000023
 42,-0.00013169,-0.00021561,-0.00004683,-0.00000520,0.00003898,0.000016
 49,-0.00081071,-0.00002475,0.00009941,0.00060900,-0.00005019,0.0001403
 2,0.00031630,-0.00004148,-0.00003720,-0.00005387,-0.00003711,-0.000133
 27,0.00003304,-0.00004657,0.00003343,-0.00002945,0.00001728,0.00004880
 ,0.00002356,0.00002850,0.00000350,-0.00024081,0.00002052,0.00002046,-0
 .00000132,0.00008925,0.00005825,0.00005973,-0.00001663,-0.00001267,-0.
 00000702,-0.00000908,-0.00009431,-0.00000279,-0.00003339,-0.00000344,-
 0.00024266,-0.00079550,-0.00006932,-0.22323589,-0.05317275,-0.09240618
 ,0.01853397,-0.00371117,-0.01324025,-0.02053918,-0.04451482,-0.0051195
 9,0.26902788,-0.00120814,0.00032387,0.00034597,-0.00013911,-0.00118023
 ,-0.00050058,0.00002498,0.00035609,-0.00101550,0.01069624,0.01036858,0
 .00543166,0.00184606,-0.00001364,-0.00016613,-0.00001810,0.00005312,0.
 00005142,-0.00001456,-0.00000522,-0.00005403,0.00004664,-0.00002107,0.
 00000703,0.00001181,0.00001906,0.00005938,0.00001630,0.00001802,-0.000
 07862,0.00001613,0.00001623,-0.00001996,0.00022168,-0.00054484,0.00024
 642,-0.00001731,-0.00000049,-0.00001112,-0.00000818,-0.00001113,-0.000
 01293,-0.00003830,-0.00007702,0.00005997,0.00021276,-0.00005070,0.0008
 3017,0.,0.00000338,-0.00004660,0.00042457,0.00014111,0.00011069,0.0001
 8810,-0.00005620,0.00004023,0.00012711,0.00010217,0.00015942,0.0001167
 3,0.00025726,-0.00004085,-0.00019527,-0.00013652,-0.00030055,-0.000313
 94,0.00003995,-0.00002883,-0.00026759,-0.00045859,0.00003977,0.0000669
 9,0.00042796,-0.00004196,0.00018742,-0.00005470,-0.00003305,-0.0000722
 2,0.00003897,-0.00000997,-0.00007782,-0.00000533,0.00001721,0.00000607
 ,-0.00012134,-0.00003058,-0.00007480,-0.00017274,0.00010113,-0.0000023
 1,-0.00000913,-0.00008079,-0.00005447,-0.00012764,-0.00010444,0.000086
 33,0.00010577,0.00023119,0.00000951,0.00000281,-0.00000078,0.00000754,
 -0.00000445,-0.00000176,-0.00000035,0.00000016,0.00000712,-0.00000273,
 0.00000445,-0.00000212,0.00001369,0.00000291,-0.00000017,-0.00000224,-
 0.00000024,0.00000622,0.00001160,0.00000274,-0.00000260,-0.00000573,-0
 .00000723,-0.00000293,0.00001020,-0.00000727,0.00000434,-0.00000565,0.
 00000327,0.00000664,0.00001008,-0.00000711,-0.00000041,-0.00000355,0.0
 0000757,-0.00000797,0.00000811,-0.00000789,-0.00000093,0.00001029,-0.0
 0000266,-0.00000146,-0.00000352,0.00000162,-0.00000044,-0.00000222,0.0
 0000412,-0.00000025,-0.00000407,0.00000053,0.00001443,-0.00000410,0.00
 000076,-0.00000384,0.00000294,-0.00000230,0.00001110,0.00000232,0.0000
 0867,-0.00000705,0.00000837,-0.00000840,0.00000961,0.00000406,0.000002
 66,0.00000927,0.00000125,0.00000176,-0.00000231,-0.00000112,0.00000684
 ,-0.00000670,0.00000522,0.00001983,0.00001170,0.00000912,0.00000155,0.
 00001383,-0.00000789,-0.00001128,-0.00000458,-0.00000559,0.00000802,-0
 .00000788,0.00000146,0.00004320,0.00001091,-0.00001390,-0.00002571,-0.
 00000825,0.00001709,0.00001017,0.00001793,0.00000432,-0.00001977,-0.00
 001046,0.00006844,-0.00000880,-0.00000833,-0.00002946,0.00001112,0.000
 00813,-0.00000721,0.00000056,-0.00000205,0.00000321,0.00001739,0.00000
 408,0.00007879,-0.00000213,-0.00004387,-0.00003325,-0.00003612,0.00000
 442,0.00001303,0.00001537,-0.00001771,-0.00003032,0.00002006,0.0000235
 0,-0.00000238,0.00001213,-0.00000199,0.00001287,0.00001577,-0.00000382
 ,-0.00000978,-0.00000050,-0.00000275,0.00000338,-0.00001128,-0.0000012
 7,-0.00000983,0.00002433,0.00000742,-0.00001267,0.00000072,0.00000029,
 0.00001726,0.00001708,0.00000295,-0.00000138,-0.00001554,-0.00000137,0
 .00000483,-0.00001224,-0.00000426,0.00002395,0.00001577,0.00000423,0.0
 0001837,0.00000840,0.00001033,0.00000437,-0.00002062,0.00002880,-0.000
 00939,-0.00000088,0.00000511,-0.00005866,0.00003847,0.00002497,-0.0000
 1049,0.00000591,-0.00004380,0.00000792,0.00001086,0.00001642,0.0000036
 2,-0.00000585,-0.00001007,-0.00003698,-0.00002444,-0.00005187,-0.00000
 780,0.00000463,-0.00000365,-0.00012505,0.00004512,-0.00013312,0.000118
 34,-0.00009036,0.00010353,0.00001481,-0.00006008,0.00011312,-0.0000539
 7,0.00001180,-0.00008422,0.00000905,0.00000295,-0.00000615,0.00000204,
 0.00001410,0.00000257,-0.00000556,-0.00001694,0.00001934,0.00000550,0.
 00001843,-0.00002473,0.00001817,0.00004564,0.00000581,0.00001195,-0.00
 003409,0.00001799,-0.00000370,0.00001136,-0.00003200,0.00000504,0.0000
 0182,-0.00000635,0.00025862,0.00009860,0.00026481,-0.05253623,-0.09984
 715,-0.03814374,-0.01048824,-0.00072871,-0.03170618,-0.05769352,-0.047
 27157,-0.01551980,0.10859398,0.13846457,-0.00004413,0.00147685,0.00021
 989,0.00103344,0.00037926,-0.00009747,-0.00084644,0.00099009,0.0007379
 2,-0.01763136,-0.00611252,-0.00194885,0.00084976,0.00094729,-0.0022985
 2,-0.00006903,0.00005097,-0.00032768,0.00003081,-0.00002264,0.00004479
 ,-0.00005346,0.00002942,0.00001593,0.00008968,-0.00002172,-0.00001012,
 -0.00023576,0.00015233,0.00007666,-0.00009431,0.00000573,0.00008096,-0
 .00044077,-0.00104423,0.00117419,-0.00001718,0.00001097,-0.00000845,-0
 .00002241,0.00000211,0.00003916,-0.00003313,-0.00004118,0.00003787,-0.
 00016433,-0.00036490,0.00105512,-0.00004571,-0.00001621,0.00013409,-0.
 00044075,0.00021572,0.00006261,-0.00018798,0.00008913,0.00000740,-0.00
 011623,-0.00001241,-0.00002929,-0.00013763,-0.00005059,0.00008691,0.00
 017988,-0.00005978,-0.00002906,0.00034517,-0.00010298,-0.00008864,0.00
 026267,0.00002474,-0.00016326,-0.00014784,-0.00005022,0.00010847,-0.00
 018361,0.00009624,0.00011892,0.00005783,-0.00005651,0.00000369,0.00006
 909,-0.00001903,-0.00003528,0.00003747,0.00003547,-0.00000538,0.000049
 50,0.00007520,-0.00009639,0.00004377,-0.00000243,0.00001820,0.00002445
 ,-0.00002982,0.00004949,-0.00016679,0.00007210,-0.00000778,-0.00000927
 ,-0.00000043,0.00000056,-0.00001033,0.00000424,0.00000229,0.00000402,-
 0.00000152,-0.00000052,0.00000399,0.00000247,-0.00000090,-0.00000917,0
 .00000089,0.00000332,0.00000874,-0.00000134,0.00000469,-0.00001377,-0.
 00000016,0.00000369,0.00000716,0.00000075,-0.00000557,-0.00001052,0.00
 000842,-0.00000228,0.00000424,-0.00000180,0.00000632,-0.00000736,0.000
 00946,-0.00000010,0.00000004,-0.00000743,-0.00000144,-0.00000914,0.000
 00704,-0.00000209,-0.00000984,0.00000131,0.00000140,0.00000342,0.00000
 125,0.00000907,0.00000405,0.00000036,-0.00000456,-0.00001488,0.0000023
 4,0.00000471,-0.00001177,0.00000462,0.00000413,0.00000132,-0.00000012,
 -0.00000769,0.00000584,-0.00000602,0.00000058,-0.00001011,0.00000261,0
 .00000561,0.00000451,-0.00000293,-0.00000351,-0.00001355,0.00000341,0.
 00000386,0.00000972,0.00000666,-0.00000531,0.00001376,0.00000606,-0.00
 000591,-0.00000454,-0.00000564,-0.00000525,-0.00001005,-0.00000663,0.0
 0001174,-0.00000472,0.00001292,-0.00000183,0.00004520,0.00002058,-0.00
 002211,-0.00003729,-0.00001525,0.00003321,-0.00001205,0.00000008,-0.00
 000934,0.00002277,0.00000406,-0.00000602,0.00002407,-0.00002323,0.0000
 1046,-0.00000735,0.00002245,-0.00001754,0.00001318,0.00000289,0.000006
 33,-0.00001944,-0.00000781,0.00000956,0.00003704,-0.00001633,0.0000195
 5,-0.00001368,0.00001498,-0.00002901,-0.00002234,-0.00001303,0.0000099
 4,-0.00000622,0.00001339,-0.00000135,-0.00001298,0.00000249,-0.0000024
 8,-0.00000034,-0.00000752,-0.00000065,-0.00000854,0.00000500,0.0000024
 5,0.00000673,0.00000241,0.00000298,-0.00000250,-0.00000421,0.00000039,
 -0.00000553,0.00000715,0.00000139,0.00000063,-0.00000654,-0.00000300,0
 .00000442,0.00000078,0.00000751,-0.00000062,-0.00000927,0.00000678,0.0
 0004264,0.00000602,-0.00003334,0.00001585,0.00003547,0.00003834,0.0000
 5449,0.00004600,-0.00000550,0.00001031,0.00001245,0.00000330,0.0000382
 3,-0.00022663,-0.00001920,-0.00002701,-0.00003317,0.00001535,0.0000516
 1,0.00002612,-0.00000288,-0.00000010,0.00001545,0.00000730,-0.00005373
 ,-0.00008118,-0.00001597,-0.00000179,0.00001880,0.00000186,-0.00031589
 ,-0.00003921,-0.00021626,0.00028638,-0.00003370,0.00019348,0.00007757,
 0.00003898,0.00013564,-0.00005679,-0.00004955,-0.00009242,0.00001208,-
 0.00000880,0.00000896,0.00000150,0.00002186,0.00003208,0.00001119,0.00
 000712,0.00001357,-0.00004362,-0.00002695,-0.00003776,0.00000218,0.000
 03052,0.00000353,0.00001184,-0.00000067,0.00000679,-0.00000755,0.00000
 715,-0.00000555,-0.00000656,-0.00001002,-0.00000547,0.00012719,-0.0008
 0090,0.00044245,-0.09586789,-0.03923051,-0.14055394,-0.03023863,-0.032
 88574,-0.06513185,0.00267027,-0.00349915,0.01793127,0.14128458,0.07997
 990,0.18832606\\-0.00000262,-0.00000079,-0.00000397,-0.00000372,0.0000
 0148,-0.00000367,0.00000303,0.00000139,0.00000790,-0.00000063,0.000002
 33,-0.00000730,-0.00000289,0.00000329,0.00000102,0.00000660,-0.0000022
 7,0.00000914,0.00000288,-0.00000243,0.00000855,-0.00000042,0.00000232,
 -0.00000157,-0.00000496,0.00000280,-0.00000276,0.00000029,0.00000275,-
 0.00000671,0.00000224,-0.00000067,0.00000332,0.00000113,0.00000077,0.0
 0000256,-0.00000123,0.00000139,-0.00000075,0.00000116,0.00000093,0.000
 00373,0.00000089,0.00000105,0.00000049,0.00000367,0.00000051,0.0000029
 5,-0.00000520,0.00000160,-0.00000738,0.00000005,0.00000776,-0.00000357
 ,0.00000185,-0.00000062,-0.00000034,-0.00000076,0.00000013,0.00000033,
 0.00000070,-0.00000044,-0.00000207,0.00000058,0.00000003,0.00000595,0.
 00000138,-0.00000150,-0.00000238,0.00000059,0.00000099,0.00000263,-0.0
 0000321,-0.00000293,-0.00000122,-0.00000146,-0.00000304,0.00000250,-0.
 00000131,0.00000168,0.00000042,-0.00000023,-0.00000386,-0.00000152,0.0
 0000501,-0.00000218,0.00000027,-0.00000196,-0.00000237,-0.00000008,0.0
 0000317,-0.00000168,-0.00000257,-0.00000093,-0.00000373,0.00000114,0.0
 0000206,-0.00000142,-0.00000182,0.00000126,0.00000342,0.00000100,-0.00
 000209,-0.00000113,0.00000019,-0.00000138,-0.00000280,-0.00000288,-0.0
 0000236,-0.00000268,-0.00000038,-0.00000542,0.00000327,-0.00000486,0.0
 0000067,-0.00000072,0.00000290,0.00000186,-0.00000245,-0.00000039,0.00
 000194,-0.00000455,0.00000200,-0.00000484,0.00000385,-0.00000375,-0.00
 000010,-0.00000017,-0.00000057,0.00000311,-0.00000358,-0.00000067,-0.0
 0000282,-0.00000123,0.00000190,0.00000313,-0.00000655,-0.00000360,-0.0
 0000402,0.00000073,-0.00000088,0.,-0.00000009,0.00000188,-0.00000029,0
 .00000225,0.00000217,-0.00000108,-0.00000062,0.00000379,0.00000097,-0.
 00000128,-0.00000224,-0.00000133,-0.00000101,-0.00000186,0.00000016,-0
 .00000069,-0.00000047,0.00000167,-0.00000473,0.00000625,0.00000085,-0.
 00000126,-0.00000421,-0.00000082,-0.00000201,0.00000077,-0.00000071,0.
 00000195,-0.00000126,0.00000310,-0.00000238,-0.00000380,0.00000101,-0.
 00000016,0.00000199,-0.00000255,-0.00000007,0.00000063,-0.00000016,0.0
 0000074,0.00000005,-0.00000403,0.00000378,0.00000043,0.00000432,-0.000
 00041,0.00000007,0.00000066,-0.00000149,-0.00000051,0.00000042,-0.0000
 0094,0.00000117,0.00000279,0.00000141,-0.00000185,0.00000125,0.0000007
 0,0.00000040,0.00000115,-0.00000075,0.00000305,0.00000073,-0.00000006,
 0.00000143,0.00000292,0.00000325,0.00000108,0.00000210,0.00000191,0.00
 000271,0.00000076,0.00000105,0.00000049,0.00000153,-0.00000274,-0.0000
 0131,0.00000056,0.00000168,-0.00000281,-0.00000004,-0.00000365,0.00000
 031,-0.00000087,-0.00000053,0.00000115,0.00000241,0.00000077,0.0000028
 7,-0.00000023,0.00000019,0.00000073,0.00000070,-0.00000121,-0.00000003
 ,0.00000116,-0.00000076,0.00000037,0.00000028,-0.00000173,0.00000112,0
 .00000104,-0.00000002,-0.00000174,0.00000414,0.00000530,-0.00000180,-0
 .00000593,-0.00000605,-0.00000299,-0.00000292,-0.00000236,-0.00000326,
 -0.00000329,0.00000084,-0.00000038,-0.00000121,0.00000004,0.00000452,-
 0.00000046,0.00000100,0.00000166,-0.00000054,0.00000153,0.00000016,-0.
 00000046,-0.00000083,-0.00000207,-0.00000149,-0.00000359,-0.00000009,0
 .00000281,0.00000606,0.00000109,-0.00000925,0.00000249,0.00000400,0.00
 000355,0.00000276,0.00000207,0.00000186,-0.00000019,-0.00000437,-0.000
 00102,0.00000443,-0.00000353,0.00000023,-0.00000047,-0.00000113,-0.000
 00070,0.00000083,-0.00000086,-0.00000222,-0.00000214,0.00000274,0.0000
 0081,-0.00000260,0.00000172,-0.00000285,0.00000229,-0.00000307,-0.0000
 0105,0.00000285,-0.00000051,-0.00000102,0.00000294,0.00000024,0.000000
 81,-0.00000034,-0.00000085,0.00000162,-0.00000025,-0.00000275,0.000000
 14,0.00000361,-0.00000021,0.00000084,0.00000164,0.00000049,0.00000052,
 -0.00000117,0.00000189,0.00000196,0.00000157,0.00000124\\\@
 The archive entry for this job was punched.


 THE FIRST MORNING OF CREATION WROTE WHAT THE LAST DAWN OF
 RECKONING SHALL READ. -- OMAR KHAYYAM
 Job cpu time:       2 days  1 hours 11 minutes 21.5 seconds.
 Elapsed time:       0 days  3 hours  8 minutes  3.0 seconds.
 File lengths (MBytes):  RWF=   9709 Int=      0 D2E=      0 Chk=     55 Scr=      1
 Normal termination of Gaussian 16 at Tue Dec 10 04:01:32 2024.
