/mnt/lustre/scratch/nvme/SLURM/9663513/usccqdma.RzRHYObAA9
OMP_STACKSIZE=0m
GAUSS_PDEF=16
GAUSS_MDEF=65536MB
GAUSS_RDEF=SCF=Direct
 Entering Gaussian System, Link 0=g16.exe
 Initial command:
 /opt/cesga/2020/software/Core/g16/c1/l1.exe "/mnt/lustre/scratch/nvme/SLURM/9663513/usccqdma.RzRHYObAA9/Gau-3638761.inp" -scrdir="/mnt/lustre/scratch/nvme/SLURM/9663513/usccqdma.RzRHYObAA9/"
 Default is to use a total of  16 processors:
                               16 via shared-memory
                                1 via Linda
 Entering Link 1 = /opt/cesga/2020/software/Core/g16/c1/l1.exe PID=   3638787.
  
 Copyright (c) 1988-2019, Gaussian, Inc.  All Rights Reserved.
  
 This is part of the Gaussian(R) 16 program.  It is based on
 the Gaussian(R) 09 system (copyright 2009, Gaussian, Inc.),
 the Gaussian(R) 03 system (copyright 2003, Gaussian, Inc.),
 the Gaussian(R) 98 system (copyright 1998, Gaussian, Inc.),
 the Gaussian(R) 94 system (copyright 1995, Gaussian, Inc.),
 the Gaussian 92(TM) system (copyright 1992, Gaussian, Inc.),
 the Gaussian 90(TM) system (copyright 1990, Gaussian, Inc.),
 the Gaussian 88(TM) system (copyright 1988, Gaussian, Inc.),
 the Gaussian 86(TM) system (copyright 1986, Carnegie Mellon
 University), and the Gaussian 82(TM) system (copyright 1983,
 Carnegie Mellon University). Gaussian is a federally registered
 trademark of Gaussian, Inc.
  
 This software contains proprietary and confidential information,
 including trade secrets, belonging to Gaussian, Inc.
  
 This software is provided under written license and may be
 used, copied, transmitted, or stored only in accord with that
 written license.
  
 The following legend is applicable only to US Government
 contracts under FAR:
  
                    RESTRICTED RIGHTS LEGEND
  
 Use, reproduction and disclosure by the US Government is
 subject to restrictions as set forth in subparagraphs (a)
 and (c) of the Commercial Computer Software - Restricted
 Rights clause in FAR 52.227-19.
  
 Gaussian, Inc.
 340 Quinnipiac St., Bldg. 40, Wallingford CT 06492
  
  
 ---------------------------------------------------------------
 Warning -- This program may not be used in any manner that
 competes with the business of Gaussian, Inc. or will provide
 assistance to any competitor of Gaussian, Inc.  The licensee
 of this program is prohibited from giving any competitor of
 Gaussian, Inc. access to this program.  By using this program,
 the user acknowledges that Gaussian, Inc. is engaged in the
 business of creating and licensing software in the field of
 computational chemistry and represents and warrants to the
 licensee that it is not a competitor of Gaussian, Inc. and that
 it will not use this program in any manner prohibited above.
 ---------------------------------------------------------------
  

 Cite this work as:
 Gaussian 16, Revision C.01,
 M. J. Frisch, G. W. Trucks, H. B. Schlegel, G. E. Scuseria, 
 M. A. Robb, J. R. Cheeseman, G. Scalmani, V. Barone, 
 G. A. Petersson, H. Nakatsuji, X. Li, M. Caricato, A. V. Marenich, 
 J. Bloino, B. G. Janesko, R. Gomperts, B. Mennucci, H. P. Hratchian, 
 J. V. Ortiz, A. F. Izmaylov, J. L. Sonnenberg, D. Williams-Young, 
 F. Ding, F. Lipparini, F. Egidi, J. Goings, B. Peng, A. Petrone, 
 T. Henderson, D. Ranasinghe, V. G. Zakrzewski, J. Gao, N. Rega, 
 G. Zheng, W. Liang, M. Hada, M. Ehara, K. Toyota, R. Fukuda, 
 J. Hasegawa, M. Ishida, T. Nakajima, Y. Honda, O. Kitao, H. Nakai, 
 T. Vreven, K. Throssell, J. A. Montgomery, Jr., J. E. Peralta, 
 F. Ogliaro, M. J. Bearpark, J. J. Heyd, E. N. Brothers, K. N. Kudin, 
 V. N. Staroverov, T. A. Keith, R. Kobayashi, J. Normand, 
 K. Raghavachari, A. P. Rendell, J. C. Burant, S. S. Iyengar, 
 J. Tomasi, M. Cossi, J. M. Millam, M. Klene, C. Adamo, R. Cammi, 
 J. W. Ochterski, R. L. Martin, K. Morokuma, O. Farkas, 
 J. B. Foresman, and D. J. Fox, Gaussian, Inc., Wallingford CT, 2019.
 
 ******************************************
 Gaussian 16:  ES64L-G16RevC.01  3-Jul-2019
                 7-Dec-2024 
 ******************************************
 Default route: SCF=Direct
 ----------------------------------------------------
 # m06/genecp scf=tight int=ultrafine 5d freq=noraman
 ----------------------------------------------------
 1/10=4,30=1,38=1/1,3;
 2/12=2,17=6,18=5,40=1/2;
 3/5=7,8=1,11=2,16=1,17=8,25=1,30=1,71=2,74=-54,75=-5,140=1/1,2,3;
 4//1;
 5/5=2,32=2,38=5,98=1/2;
 8/6=4,10=90,11=11/1;
 11/6=1,8=1,9=11,15=111,16=1/1,2,10;
 10/6=1/2;
 6/7=2,8=2,9=2,10=2,28=1/1;
 7/8=1,10=1,25=1/1,2,3,16;
 1/10=4,30=1/3;
 99//99;
 ------
 OPT-TS
 ------
 Symbolic Z-matrix:
 Charge =  0 Multiplicity = 1
 C                     2.13851   0.31439   1.46516 
 C                     2.60645   1.40066  -0.52625 
 C                     3.83294   1.84993  -0.04672 
 C                     4.1963    1.53525   1.25531 
 C                     3.33339   0.76586   2.02267 
 C                     1.19434  -0.56323   2.18633 
 C                    -0.83393  -1.67225   2.11752 
 C                    -0.58933  -2.28695   3.33919 
 C                     0.59541  -2.01292   4.00552 
 C                     1.50279  -1.14697   3.41286 
 H                     2.25861   1.65652  -1.52771 
 H                     5.1415    1.88566   1.66259 
 H                     3.59848   0.52045   3.04703 
 H                    -1.75826  -1.84326   1.56796 
 H                     0.81163  -2.47869   4.9638 
 H                     2.45471  -0.95261   3.8983 
 N                     1.78974   0.65033   0.2068 
 N                     0.01997  -0.80924   1.56997 
 Ir                   -0.377     0.19163  -0.39883 
 O                    -3.35397   1.06114  -0.77067 
 O                    -2.41086  -1.88974  -1.63636 
 O                    -1.06498   2.57005   1.45267 
 B                    -1.2555   -1.12772  -1.92707 
 B                    -2.36729   0.40447  -0.05032 
 B                    -0.56647   2.13351   0.23258 
 O                     0.03761   3.17713  -0.44965 
 O                    -2.88033  -0.03136   1.16799 
 C                    -4.30357   0.11101   1.1542 
 C                    -4.51356   1.20942   0.06616 
 C                    -0.53108   3.88407   1.69317 
 C                    -0.24318   4.39668   0.25321 
 C                    -2.98235  -2.30457  -2.8866 
 C                    -2.48616  -1.20417  -3.87125 
 O                    -1.23761  -0.81994  -3.29369 
 C                    -5.7607    1.03862  -0.77777 
 H                    -5.80182   1.82697  -1.5408 
 H                    -5.77961   0.07058  -1.29121 
 H                    -6.66461   1.11725  -0.15631 
 C                    -4.4707    2.6224    0.63191 
 H                    -3.5627    2.76991   1.2311 
 H                    -4.45166   3.33306  -0.20548 
 H                    -5.35071   2.84612   1.2499 
 C                    -4.87397  -1.25073   0.78158 
 H                    -4.4863   -1.58142  -0.18954 
 H                    -4.5454   -1.97995   1.53596 
 H                    -5.97231  -1.25325   0.75983 
 C                    -4.76253   0.49471   2.54799 
 H                    -4.53791  -0.32616   3.24163 
 H                    -4.24676   1.39067   2.91068 
 H                    -5.8474    0.67346   2.57135 
 C                    -2.43564  -3.69132  -3.21407 
 H                    -1.35477  -3.67702  -3.4066 
 H                    -2.61989  -4.35355  -2.35832 
 H                    -2.92599  -4.12366  -4.0967 
 C                    -4.48927  -2.39331  -2.75622 
 H                    -4.76139  -3.18366  -2.04369 
 H                    -4.91681  -1.44869  -2.40291 
 H                    -4.94711  -2.63865  -3.72537 
 C                    -2.23557  -1.69162  -5.28742 
 H                    -1.47925  -2.48452  -5.32415 
 H                    -3.16192  -2.07174  -5.74194 
 H                    -1.87688  -0.85677  -5.90296 
 C                    -3.3817    0.02708  -3.91024 
 H                    -3.56663   0.41839  -2.90243 
 H                    -2.86499   0.81031  -4.47989 
 H                    -4.34077  -0.17982  -4.40594 
 C                    -1.45823   5.02451  -0.41377 
 H                    -1.23794   5.17059  -1.47826 
 H                    -2.33085   4.36167  -0.34283 
 H                    -1.71263   5.99869   0.02521 
 C                     0.95493   5.31706   0.12934 
 H                     0.81957   6.22528   0.73413 
 H                     1.88092   4.82046   0.44244 
 H                     1.07926   5.62204  -0.91744 
 C                     0.73585   3.69094   2.51806 
 H                     1.49466   3.13321   1.95094 
 H                     1.17358   4.6469    2.83528 
 H                     0.48627   3.10751   3.41402 
 C                    -1.53567   4.70066   2.47966 
 H                    -1.69408   4.24328   3.46495 
 H                    -1.16742   5.72502   2.6353 
 H                    -2.50549   4.75522   1.97305 
 H                    -0.51387   0.99977  -1.76655 
 C                     2.65604  -1.85958  -1.19013 
 O                     2.57232  -2.2205   -0.01607 
 C                     4.00884  -1.50396  -1.79693 
 H                     4.22317  -2.16739  -2.65093 
 H                     3.95626  -0.48718  -2.21787 
 C                     0.23763  -1.96621  -1.40587 
 H                    -0.18815  -2.84904  -1.90989 
 H                     0.39393  -2.31307  -0.38235 
 N                     1.55513  -1.71139  -1.98274 
 C                     1.60146  -1.31974  -3.37808 
 H                     1.22463  -0.29809  -3.51928 
 H                     2.61673  -1.39446  -3.77187 
 H                     0.95285  -1.98085  -3.96735 
 C                     5.14607  -1.59128  -0.7903 
 H                     6.00462  -1.01859  -1.17766 
 H                     4.83605  -1.10282   0.1469 
 C                     5.58283  -3.01607  -0.48673 
 H                     4.7148   -3.58535  -0.12138 
 H                     5.9095   -3.5063   -1.42128 
 C                     6.70738  -3.08546   0.53473 
 H                     7.56397  -2.48958   0.17772 
 H                     6.374    -2.60409   1.46885 
 C                     7.15147  -4.51049   0.81901 
 H                     6.31514  -5.1136    1.19887 
 H                     7.51645  -4.99887  -0.0954 
 H                     7.95781  -4.55152   1.56203 
 C                     4.71976   2.62836  -0.96685 
 F                     5.08868   1.87845  -2.01499 
 F                     4.09175   3.70002  -1.4566 
 F                     5.8301    3.04424  -0.35483 
 C                    -1.62066  -3.23342   3.87073 
 F                    -2.83069  -2.66282   3.89692 
 F                    -1.719    -4.32028   3.10049 
 F                    -1.3309   -3.636     5.11117 
 

 GradGradGradGradGradGradGradGradGradGradGradGradGradGradGradGradGradGrad
 Berny optimization.
 Initialization pass.
 Trust Radius=3.00D-01 FncErr=1.00D-07 GrdErr=1.00D-07 EigMax=2.50D+02 EigMin=1.00D-04
 Number of steps in this run=      2 maximum allowed number of steps=      2.
 GradGradGradGradGradGradGradGradGradGradGradGradGradGradGradGradGradGrad

 Stoichiometry    C38H59B3F6IrN3O7
 Framework group  C1[X(C38H59B3F6IrN3O7)]
 Deg. of freedom   345
 Full point group                 C1      NOp   1
 Largest Abelian subgroup         C1      NOp   1
 Largest concise Abelian subgroup C1      NOp   1
                         Standard orientation:                         
 ---------------------------------------------------------------------
 Center     Atomic      Atomic             Coordinates (Angstroms)
 Number     Number       Type             X           Y           Z
 ---------------------------------------------------------------------
      1          6           0        2.138510    0.314389    1.465161
      2          6           0        2.606451    1.400659   -0.526249
      3          6           0        3.832941    1.849928   -0.046719
      4          6           0        4.196301    1.535248    1.255311
      5          6           0        3.333390    0.765859    2.022671
      6          6           0        1.194340   -0.563231    2.186331
      7          6           0       -0.833930   -1.672251    2.117521
      8          6           0       -0.589330   -2.286951    3.339191
      9          6           0        0.595410   -2.012921    4.005521
     10          6           0        1.502790   -1.146971    3.412861
     11          1           0        2.258611    1.656519   -1.527709
     12          1           0        5.141501    1.885658    1.662591
     13          1           0        3.598480    0.520449    3.047031
     14          1           0       -1.758260   -1.843260    1.567961
     15          1           0        0.811630   -2.478691    4.963801
     16          1           0        2.454710   -0.952611    3.898301
     17          7           0        1.789740    0.650329    0.206801
     18          7           0        0.019970   -0.809241    1.569971
     19         77           0       -0.377000    0.191629   -0.398829
     20          8           0       -3.353969    1.061140   -0.770669
     21          8           0       -2.410860   -1.889740   -1.636359
     22          8           0       -1.064979    2.570049    1.452671
     23          5           0       -1.255500   -1.127720   -1.927069
     24          5           0       -2.367290    0.404470   -0.050319
     25          5           0       -0.566469    2.133509    0.232581
     26          8           0        0.037611    3.177129   -0.449649
     27          8           0       -2.880330   -0.031360    1.167991
     28          6           0       -4.303570    0.111010    1.154201
     29          6           0       -4.513559    1.209420    0.066161
     30          6           0       -0.531079    3.884069    1.693171
     31          6           0       -0.243179    4.396679    0.253211
     32          6           0       -2.982350   -2.304570   -2.886599
     33          6           0       -2.486160   -1.204170   -3.871249
     34          8           0       -1.237610   -0.819940   -3.293689
     35          6           0       -5.760699    1.038620   -0.777769
     36          1           0       -5.801819    1.826970   -1.540799
     37          1           0       -5.779610    0.070580   -1.291209
     38          1           0       -6.664609    1.117251   -0.156309
     39          6           0       -4.470699    2.622400    0.631911
     40          1           0       -3.562699    2.769910    1.231101
     41          1           0       -4.451659    3.333060   -0.205479
     42          1           0       -5.350709    2.846120    1.249901
     43          6           0       -4.873970   -1.250730    0.781581
     44          1           0       -4.486300   -1.581420   -0.189539
     45          1           0       -4.545400   -1.979950    1.535961
     46          1           0       -5.972310   -1.253249    0.759831
     47          6           0       -4.762530    0.494710    2.547991
     48          1           0       -4.537910   -0.326160    3.241631
     49          1           0       -4.246759    1.390670    2.910681
     50          1           0       -5.847400    0.673460    2.571351
     51          6           0       -2.435640   -3.691320   -3.214069
     52          1           0       -1.354770   -3.677020   -3.406599
     53          1           0       -2.619891   -4.353550   -2.358319
     54          1           0       -2.925991   -4.123660   -4.096699
     55          6           0       -4.489270   -2.393310   -2.756219
     56          1           0       -4.761390   -3.183660   -2.043689
     57          1           0       -4.916810   -1.448690   -2.402909
     58          1           0       -4.947110   -2.638650   -3.725369
     59          6           0       -2.235570   -1.691620   -5.287419
     60          1           0       -1.479250   -2.484520   -5.324149
     61          1           0       -3.161920   -2.071740   -5.741939
     62          1           0       -1.876880   -0.856770   -5.902959
     63          6           0       -3.381700    0.027080   -3.910239
     64          1           0       -3.566630    0.418390   -2.902429
     65          1           0       -2.864990    0.810310   -4.479889
     66          1           0       -4.340770   -0.179820   -4.405939
     67          6           0       -1.458229    5.024510   -0.413769
     68          1           0       -1.237939    5.170590   -1.478259
     69          1           0       -2.330849    4.361670   -0.342829
     70          1           0       -1.712628    5.998690    0.025211
     71          6           0        0.954931    5.317059    0.129341
     72          1           0        0.819572    6.225279    0.734131
     73          1           0        1.880921    4.820459    0.442441
     74          1           0        1.079261    5.622039   -0.917439
     75          6           0        0.735851    3.690939    2.518061
     76          1           0        1.494661    3.133209    1.950941
     77          1           0        1.173581    4.646899    2.835281
     78          1           0        0.486271    3.107509    3.414021
     79          6           0       -1.535669    4.700660    2.479661
     80          1           0       -1.694079    4.243280    3.464951
     81          1           0       -1.167418    5.725020    2.635301
     82          1           0       -2.505489    4.755220    1.973051
     83          1           0       -0.513869    0.999769   -1.766549
     84          6           0        2.656040   -1.859581   -1.190129
     85          8           0        2.572320   -2.220501   -0.016069
     86          6           0        4.008840   -1.503962   -1.796929
     87          1           0        4.223170   -2.167392   -2.650929
     88          1           0        3.956260   -0.487182   -2.217869
     89          6           0        0.237630   -1.966211   -1.405869
     90          1           0       -0.188150   -2.849041   -1.909889
     91          1           0        0.393930   -2.313071   -0.382349
     92          7           0        1.555130   -1.711391   -1.982739
     93          6           0        1.601460   -1.319741   -3.378079
     94          1           0        1.224630   -0.298091   -3.519279
     95          1           0        2.616730   -1.394461   -3.771869
     96          1           0        0.952850   -1.980851   -3.967349
     97          6           0        5.146070   -1.591282   -0.790299
     98          1           0        6.004620   -1.018592   -1.177659
     99          1           0        4.836050   -1.102822    0.146901
    100          6           0        5.582830   -3.016072   -0.486729
    101          1           0        4.714800   -3.585352   -0.121379
    102          1           0        5.909500   -3.506302   -1.421279
    103          6           0        6.707380   -3.085462    0.534731
    104          1           0        7.563970   -2.489582    0.177721
    105          1           0        6.374000   -2.604092    1.468851
    106          6           0        7.151469   -4.510492    0.819011
    107          1           0        6.315139   -5.113602    1.198871
    108          1           0        7.516449   -4.998872   -0.095399
    109          1           0        7.957809   -4.551522    1.562031
    110          6           0        4.719761    2.628358   -0.966849
    111          9           0        5.088681    1.878448   -2.014989
    112          9           0        4.091751    3.700018   -1.456599
    113          9           0        5.830101    3.044238   -0.354829
    114          6           0       -1.620660   -3.233420    3.870731
    115          9           0       -2.830690   -2.662820    3.896921
    116          9           0       -1.719001   -4.320280    3.100491
    117          9           0       -1.330900   -3.636000    5.111171
 ---------------------------------------------------------------------
 Rotational constants (GHZ):           0.0515682           0.0378026           0.0348447
 General basis read from cards:  (5D, 7F)
 ======================================================================================================
                                       Pseudopotential Parameters
 ======================================================================================================
  Center     Atomic      Valence      Angular      Power
  Number     Number     Electrons     Momentum     of R      Exponent        Coefficient   SO-Coeffient
 ======================================================================================================
    1          6
                                   No pseudopotential on this center.
    2          6
                                   No pseudopotential on this center.
    3          6
                                   No pseudopotential on this center.
    4          6
                                   No pseudopotential on this center.
    5          6
                                   No pseudopotential on this center.
    6          6
                                   No pseudopotential on this center.
    7          6
                                   No pseudopotential on this center.
    8          6
                                   No pseudopotential on this center.
    9          6
                                   No pseudopotential on this center.
   10          6
                                   No pseudopotential on this center.
   11          1
                                   No pseudopotential on this center.
   12          1
                                   No pseudopotential on this center.
   13          1
                                   No pseudopotential on this center.
   14          1
                                   No pseudopotential on this center.
   15          1
                                   No pseudopotential on this center.
   16          1
                                   No pseudopotential on this center.
   17          7
                                   No pseudopotential on this center.
   18          7
                                   No pseudopotential on this center.
   19         77           17
                                      G and up 
                                                     1      823.5880147       -0.15780140    0.00000000
                                                     2      364.6613336    -1517.52704460    0.00000000
                                                     2       55.7082801     -316.53065290    0.00000000
                                                     2       12.0464544      -91.88809410    0.00000000
                                                     2        3.5120610       -9.22417730    0.00000000
                                      S - G
                                                     0      188.0490770        3.15780140    0.00000000
                                                     1      340.4194712       26.83225770    0.00000000
                                                     2      128.2373673      800.42500070    0.00000000
                                                     2       33.8644961      369.40506830    0.00000000
                                                     2        4.7560005      242.41718990    0.00000000
                                                     2        3.9649974     -118.21732820    0.00000000
                                      P - G
                                                     0      289.7291139        2.15780140    0.00000000
                                                     1       87.4633789       61.96786100    0.00000000
                                                     2       30.4363766      269.05819860    0.00000000
                                                     2        4.0553412      231.16547930    0.00000000
                                                     2        3.5525341     -133.69526670    0.00000000
                                      D - G
                                                     0      136.4017106        3.15780140    0.00000000
                                                     1       95.0776925       45.93498030    0.00000000
                                                     2       49.2258410      359.03446680    0.00000000
                                                     2       15.0874145      176.47401190    0.00000000
                                                     2        4.0405764       54.51552860    0.00000000
                                      F - G
                                                     0      127.3507908        3.95461970    0.00000000
                                                     1       66.2364374       52.97736550    0.00000000
                                                     2       34.4299229      274.86433830    0.00000000
                                                     2       10.1995721      137.20473380    0.00000000
                                                     2        2.5409702       14.86333050    0.00000000
   20          8
                                   No pseudopotential on this center.
   21          8
                                   No pseudopotential on this center.
   22          8
                                   No pseudopotential on this center.
   23          5
                                   No pseudopotential on this center.
   24          5
                                   No pseudopotential on this center.
   25          5
                                   No pseudopotential on this center.
   26          8
                                   No pseudopotential on this center.
   27          8
                                   No pseudopotential on this center.
   28          6
                                   No pseudopotential on this center.
   29          6
                                   No pseudopotential on this center.
   30          6
                                   No pseudopotential on this center.
   31          6
                                   No pseudopotential on this center.
   32          6
                                   No pseudopotential on this center.
   33          6
                                   No pseudopotential on this center.
   34          8
                                   No pseudopotential on this center.
   35          6
                                   No pseudopotential on this center.
   36          1
                                   No pseudopotential on this center.
   37          1
                                   No pseudopotential on this center.
   38          1
                                   No pseudopotential on this center.
   39          6
                                   No pseudopotential on this center.
   40          1
                                   No pseudopotential on this center.
   41          1
                                   No pseudopotential on this center.
   42          1
                                   No pseudopotential on this center.
   43          6
                                   No pseudopotential on this center.
   44          1
                                   No pseudopotential on this center.
   45          1
                                   No pseudopotential on this center.
   46          1
                                   No pseudopotential on this center.
   47          6
                                   No pseudopotential on this center.
   48          1
                                   No pseudopotential on this center.
   49          1
                                   No pseudopotential on this center.
   50          1
                                   No pseudopotential on this center.
   51          6
                                   No pseudopotential on this center.
   52          1
                                   No pseudopotential on this center.
   53          1
                                   No pseudopotential on this center.
   54          1
                                   No pseudopotential on this center.
   55          6
                                   No pseudopotential on this center.
   56          1
                                   No pseudopotential on this center.
   57          1
                                   No pseudopotential on this center.
   58          1
                                   No pseudopotential on this center.
   59          6
                                   No pseudopotential on this center.
   60          1
                                   No pseudopotential on this center.
   61          1
                                   No pseudopotential on this center.
   62          1
                                   No pseudopotential on this center.
   63          6
                                   No pseudopotential on this center.
   64          1
                                   No pseudopotential on this center.
   65          1
                                   No pseudopotential on this center.
   66          1
                                   No pseudopotential on this center.
   67          6
                                   No pseudopotential on this center.
   68          1
                                   No pseudopotential on this center.
   69          1
                                   No pseudopotential on this center.
   70          1
                                   No pseudopotential on this center.
   71          6
                                   No pseudopotential on this center.
   72          1
                                   No pseudopotential on this center.
   73          1
                                   No pseudopotential on this center.
   74          1
                                   No pseudopotential on this center.
   75          6
                                   No pseudopotential on this center.
   76          1
                                   No pseudopotential on this center.
   77          1
                                   No pseudopotential on this center.
   78          1
                                   No pseudopotential on this center.
   79          6
                                   No pseudopotential on this center.
   80          1
                                   No pseudopotential on this center.
   81          1
                                   No pseudopotential on this center.
   82          1
                                   No pseudopotential on this center.
   83          1
                                   No pseudopotential on this center.
   84          6
                                   No pseudopotential on this center.
   85          8
                                   No pseudopotential on this center.
   86          6
                                   No pseudopotential on this center.
   87          1
                                   No pseudopotential on this center.
   88          1
                                   No pseudopotential on this center.
   89          6
                                   No pseudopotential on this center.
   90          1
                                   No pseudopotential on this center.
   91          1
                                   No pseudopotential on this center.
   92          7
                                   No pseudopotential on this center.
   93          6
                                   No pseudopotential on this center.
   94          1
                                   No pseudopotential on this center.
   95          1
                                   No pseudopotential on this center.
   96          1
                                   No pseudopotential on this center.
   97          6
                                   No pseudopotential on this center.
   98          1
                                   No pseudopotential on this center.
   99          1
                                   No pseudopotential on this center.
  100          6
                                   No pseudopotential on this center.
  101          1
                                   No pseudopotential on this center.
  102          1
                                   No pseudopotential on this center.
  103          6
                                   No pseudopotential on this center.
  104          1
                                   No pseudopotential on this center.
  105          1
                                   No pseudopotential on this center.
  106          6
                                   No pseudopotential on this center.
  107          1
                                   No pseudopotential on this center.
  108          1
                                   No pseudopotential on this center.
  109          1
                                   No pseudopotential on this center.
  110          6
                                   No pseudopotential on this center.
  111          9
                                   No pseudopotential on this center.
  112          9
                                   No pseudopotential on this center.
  113          9
                                   No pseudopotential on this center.
  114          6
                                   No pseudopotential on this center.
  115          9
                                   No pseudopotential on this center.
  116          9
                                   No pseudopotential on this center.
  117          9
                                   No pseudopotential on this center.
 ======================================================================================================
 There are   997 symmetry adapted cartesian basis functions of A   symmetry.
 There are   938 symmetry adapted basis functions of A   symmetry.
   938 basis functions,  1875 primitive gaussians,   997 cartesian basis functions
   225 alpha electrons      225 beta electrons
       nuclear repulsion energy     10486.0109138768 Hartrees.
 NAtoms=  117 NActive=  117 NUniq=  117 SFac= 1.00D+00 NAtFMM=   60 NAOKFM=T Big=T
 Integral buffers will be    131072 words long.
 Raffenetti 2 integral format.
 Two-electron integral symmetry is turned on.
 One-electron integrals computed using PRISM.
   1 Symmetry operations used in ECPInt.
 ECPInt:  NShTT=   62835 NPrTT=  387974 LenC2=   45156 LenP2D=  137564.
 LDataN:  DoStor=T MaxTD1= 6 Len=  172
 NBasis=   938 RedAO= T EigKep=  4.58D-04  NBF=   938
 NBsUse=   938 1.00D-06 EigRej= -1.00D+00 NBFU=   938
 Defaulting to unpruned grid for atomic number  77.
 ExpMin= 2.90D-02 ExpMax= 7.00D+03 ExpMxC= 1.05D+03 IAcc=3 IRadAn=         5 AccDes= 0.00D+00
 Harris functional with IExCor= 1009 and IRadAn=       5 diagonalized for initial guess.
 HarFok:  IExCor= 1009 AccDes= 0.00D+00 IRadAn=         5 IDoV= 1 UseB2=F ITyADJ=14
 ICtDFT=  3500011 ScaDFX=  1.000000  1.000000  1.000000  1.000000
 Defaulting to unpruned grid for atomic number  77.
 FoFCou: FMM=F IPFlag=           0 FMFlag=      100000 FMFlg1=        2001
         NFxFlg=           0 DoJE=T BraDBF=F KetDBF=T FulRan=T
         wScrn=  0.000000 ICntrl=       500 IOpCl=  0 I1Cent=   200000004 NGrid=           0
         NMat0=    1 NMatS0=      1 NMatT0=    0 NMatD0=    1 NMtDS0=    0 NMtDT0=    0
 Petite list used in FoFCou.
 Requested convergence on RMS density matrix=1.00D-08 within 128 cycles.
 Requested convergence on MAX density matrix=1.00D-06.
 Requested convergence on             energy=1.00D-06.
 No special actions if energy rises.
 Defaulting to unpruned grid for atomic number  77.
 Defaulting to unpruned grid for atomic number  77.
 Defaulting to unpruned grid for atomic number  77.
 Defaulting to unpruned grid for atomic number  77.
 Defaulting to unpruned grid for atomic number  77.
 Defaulting to unpruned grid for atomic number  77.
 Defaulting to unpruned grid for atomic number  77.
 Defaulting to unpruned grid for atomic number  77.
 Defaulting to unpruned grid for atomic number  77.
 Defaulting to unpruned grid for atomic number  77.
 Defaulting to unpruned grid for atomic number  77.
 Defaulting to unpruned grid for atomic number  77.
 Defaulting to unpruned grid for atomic number  77.
 Defaulting to unpruned grid for atomic number  77.
 Defaulting to unpruned grid for atomic number  77.
 Defaulting to unpruned grid for atomic number  77.
 SCF Done:  E(RM06) =  -2951.37895845     A.U. after   15 cycles
            NFock= 15  Conv=0.90D-08     -V/T= 2.0310
 DoSCS=F DFT=T ScalE2(SS,OS)=  1.000000  1.000000
 Range of M.O.s used for correlation:     1   938
 NBasis=   938 NAE=   225 NBE=   225 NFC=     0 NFV=     0
 NROrb=    938 NOA=   225 NOB=   225 NVA=   713 NVB=   713
   1 Symmetry operations used in ECPInt.
 ECPInt:  NShTT=   62835 NPrTT=  387974 LenC2=   45156 LenP2D=  137564.
 LDataN:  DoStor=T MaxTD1= 7 Len=  274
 Number of processors reduced to   6 by ecpmxn.
 Symmetrizing basis deriv contribution to polar:
 IMax=3 JMax=2 DiffMx= 0.00D+00
 G2DrvN: will do   118 centers at a time, making    1 passes.
 Calling FoFCou, ICntrl=  3107 FMM=T I1Cent=   0 AccDes= 0.00D+00.
 Defaulting to unpruned grid for atomic number  77.
 Defaulting to unpruned grid for atomic number  77.
 Defaulting to unpruned grid for atomic number  77.
 Defaulting to unpruned grid for atomic number  77.
 Defaulting to unpruned grid for atomic number  77.
 Defaulting to unpruned grid for atomic number  77.
 Defaulting to unpruned grid for atomic number  77.
 Defaulting to unpruned grid for atomic number  77.
 Defaulting to unpruned grid for atomic number  77.
 Defaulting to unpruned grid for atomic number  77.
 Defaulting to unpruned grid for atomic number  77.
 Defaulting to unpruned grid for atomic number  77.
 Defaulting to unpruned grid for atomic number  77.
 Defaulting to unpruned grid for atomic number  77.
 Defaulting to unpruned grid for atomic number  77.
 Defaulting to unpruned grid for atomic number  77.
 End of G2Drv F.D. properties file   721 does not exist.
 End of G2Drv F.D. properties file   722 does not exist.
 End of G2Drv F.D. properties file   788 does not exist.
          IDoAtm=11111111111111111111111111111111111111111111111111
          IDoAtm=11111111111111111111111111111111111111111111111111
          IDoAtm=11111111111111111
          Differentiating once with respect to electric field.
                with respect to dipole field.
          Differentiating once with respect to nuclear coordinates.
 Defaulting to unpruned grid for atomic number  77.
 CalDSu exits because no D1Ps are significant.
 Defaulting to unpruned grid for atomic number  77.
 Defaulting to unpruned grid for atomic number  77.
 Defaulting to unpruned grid for atomic number  77.
 Defaulting to unpruned grid for atomic number  77.
 Defaulting to unpruned grid for atomic number  77.
 Defaulting to unpruned grid for atomic number  77.
 Defaulting to unpruned grid for atomic number  77.
 Defaulting to unpruned grid for atomic number  77.
 Defaulting to unpruned grid for atomic number  77.
 Defaulting to unpruned grid for atomic number  77.
 Defaulting to unpruned grid for atomic number  77.
 Defaulting to unpruned grid for atomic number  77.
 Defaulting to unpruned grid for atomic number  77.
 Defaulting to unpruned grid for atomic number  77.
 Defaulting to unpruned grid for atomic number  77.
 Defaulting to unpruned grid for atomic number  77.
          There are   354 degrees of freedom in the 1st order CPHF.  IDoFFX=6 NUNeed=     3.
    351 vectors produced by pass  0 Test12= 1.60D-13 1.00D-09 XBig12= 4.69D+02 5.99D+00.
 AX will form    72 AO Fock derivatives at one time.
    351 vectors produced by pass  1 Test12= 1.60D-13 1.00D-09 XBig12= 8.77D+01 9.61D-01.
    351 vectors produced by pass  2 Test12= 1.60D-13 1.00D-09 XBig12= 9.62D-01 8.12D-02.
    351 vectors produced by pass  3 Test12= 1.60D-13 1.00D-09 XBig12= 6.27D-03 5.99D-03.
    351 vectors produced by pass  4 Test12= 1.60D-13 1.00D-09 XBig12= 2.46D-05 3.69D-04.
    318 vectors produced by pass  5 Test12= 1.60D-13 1.00D-09 XBig12= 5.34D-08 1.63D-05.
     88 vectors produced by pass  6 Test12= 1.60D-13 1.00D-09 XBig12= 8.57D-11 5.77D-07.
      3 vectors produced by pass  7 Test12= 1.60D-13 1.00D-09 XBig12= 1.18D-13 2.19D-08.
 InvSVY:  IOpt=1 It=  1 EMax= 7.11D-15
 Solved reduced A of dimension  2164 with   354 vectors.
 Isotropic polarizability for W=    0.000000      520.19 Bohr**3.
 End of Minotr F.D. properties file   721 does not exist.
 End of Minotr F.D. properties file   722 does not exist.
 End of Minotr F.D. properties file   788 does not exist.
 Hyperfine terms turned off by default for NAtoms > 100.

 **********************************************************************

            Population analysis using the SCF Density.

 **********************************************************************

 Orbital symmetries:
       Occupied  (A) (A) (A) (A) (A) (A) (A) (A) (A) (A) (A) (A)
                 (A) (A) (A) (A) (A) (A) (A) (A) (A) (A) (A) (A)
                 (A) (A) (A) (A) (A) (A) (A) (A) (A) (A) (A) (A)
                 (A) (A) (A) (A) (A) (A) (A) (A) (A) (A) (A) (A)
                 (A) (A) (A) (A) (A) (A) (A) (A) (A) (A) (A) (A)
                 (A) (A) (A) (A) (A) (A) (A) (A) (A) (A) (A) (A)
                 (A) (A) (A) (A) (A) (A) (A) (A) (A) (A) (A) (A)
                 (A) (A) (A) (A) (A) (A) (A) (A) (A) (A) (A) (A)
                 (A) (A) (A) (A) (A) (A) (A) (A) (A) (A) (A) (A)
                 (A) (A) (A) (A) (A) (A) (A) (A) (A) (A) (A) (A)
                 (A) (A) (A) (A) (A) (A) (A) (A) (A) (A) (A) (A)
                 (A) (A) (A) (A) (A) (A) (A) (A) (A) (A) (A) (A)
                 (A) (A) (A) (A) (A) (A) (A) (A) (A) (A) (A) (A)
                 (A) (A) (A) (A) (A) (A) (A) (A) (A) (A) (A) (A)
                 (A) (A) (A) (A) (A) (A) (A) (A) (A) (A) (A) (A)
                 (A) (A) (A) (A) (A) (A) (A) (A) (A) (A) (A) (A)
                 (A) (A) (A) (A) (A) (A) (A) (A) (A) (A) (A) (A)
                 (A) (A) (A) (A) (A) (A) (A) (A) (A) (A) (A) (A)
                 (A) (A) (A) (A) (A) (A) (A) (A) (A)
       Virtual   (A) (A) (A) (A) (A) (A) (A) (A) (A) (A) (A) (A)
                 (A) (A) (A) (A) (A) (A) (A) (A) (A) (A) (A) (A)
                 (A) (A) (A) (A) (A) (A) (A) (A) (A) (A) (A) (A)
                 (A) (A) (A) (A) (A) (A) (A) (A) (A) (A) (A) (A)
                 (A) (A) (A) (A) (A) (A) (A) (A) (A) (A) (A) (A)
                 (A) (A) (A) (A) (A) (A) (A) (A) (A) (A) (A) (A)
                 (A) (A) (A) (A) (A) (A) (A) (A) (A) (A) (A) (A)
                 (A) (A) (A) (A) (A) (A) (A) (A) (A) (A) (A) (A)
                 (A) (A) (A) (A) (A) (A) (A) (A) (A) (A) (A) (A)
                 (A) (A) (A) (A) (A) (A) (A) (A) (A) (A) (A) (A)
                 (A) (A) (A) (A) (A) (A) (A) (A) (A) (A) (A) (A)
                 (A) (A) (A) (A) (A) (A) (A) (A) (A) (A) (A) (A)
                 (A) (A) (A) (A) (A) (A) (A) (A) (A) (A) (A) (A)
                 (A) (A) (A) (A) (A) (A) (A) (A) (A) (A) (A) (A)
                 (A) (A) (A) (A) (A) (A) (A) (A) (A) (A) (A) (A)
                 (A) (A) (A) (A) (A) (A) (A) (A) (A) (A) (A) (A)
                 (A) (A) (A) (A) (A) (A) (A) (A) (A) (A) (A) (A)
                 (A) (A) (A) (A) (A) (A) (A) (A) (A) (A) (A) (A)
                 (A) (A) (A) (A) (A) (A) (A) (A) (A) (A) (A) (A)
                 (A) (A) (A) (A) (A) (A) (A) (A) (A) (A) (A) (A)
                 (A) (A) (A) (A) (A) (A) (A) (A) (A) (A) (A) (A)
                 (A) (A) (A) (A) (A) (A) (A) (A) (A) (A) (A) (A)
                 (A) (A) (A) (A) (A) (A) (A) (A) (A) (A) (A) (A)
                 (A) (A) (A) (A) (A) (A) (A) (A) (A) (A) (A) (A)
                 (A) (A) (A) (A) (A) (A) (A) (A) (A) (A) (A) (A)
                 (A) (A) (A) (A) (A) (A) (A) (A) (A) (A) (A) (A)
                 (A) (A) (A) (A) (A) (A) (A) (A) (A) (A) (A) (A)
                 (A) (A) (A) (A) (A) (A) (A) (A) (A) (A) (A) (A)
                 (A) (A) (A) (A) (A) (A) (A) (A) (A) (A) (A) (A)
                 (A) (A) (A) (A) (A) (A) (A) (A) (A) (A) (A) (A)
                 (A) (A) (A) (A) (A) (A) (A) (A) (A) (A) (A) (A)
                 (A) (A) (A) (A) (A) (A) (A) (A) (A) (A) (A) (A)
                 (A) (A) (A) (A) (A) (A) (A) (A) (A) (A) (A) (A)
                 (A) (A) (A) (A) (A) (A) (A) (A) (A) (A) (A) (A)
                 (A) (A) (A) (A) (A) (A) (A) (A) (A) (A) (A) (A)
                 (A) (A) (A) (A) (A) (A) (A) (A) (A) (A) (A) (A)
                 (A) (A) (A) (A) (A) (A) (A) (A) (A) (A) (A) (A)
                 (A) (A) (A) (A) (A) (A) (A) (A) (A) (A) (A) (A)
                 (A) (A) (A) (A) (A) (A) (A) (A) (A) (A) (A) (A)
                 (A) (A) (A) (A) (A) (A) (A) (A) (A) (A) (A) (A)
                 (A) (A) (A) (A) (A) (A) (A) (A) (A) (A) (A) (A)
                 (A) (A) (A) (A) (A) (A) (A) (A) (A) (A) (A) (A)
                 (A) (A) (A) (A) (A) (A) (A) (A) (A) (A) (A) (A)
                 (A) (A) (A) (A) (A) (A) (A) (A) (A) (A) (A) (A)
                 (A) (A) (A) (A) (A) (A) (A) (A) (A) (A) (A) (A)
                 (A) (A) (A) (A) (A) (A) (A) (A) (A) (A) (A) (A)
                 (A) (A) (A) (A) (A) (A) (A) (A) (A) (A) (A) (A)
                 (A) (A) (A) (A) (A) (A) (A) (A) (A) (A) (A) (A)
                 (A) (A) (A) (A) (A) (A) (A) (A) (A) (A) (A) (A)
                 (A) (A) (A) (A) (A) (A) (A) (A) (A) (A) (A) (A)
                 (A) (A) (A) (A) (A) (A) (A) (A) (A) (A) (A) (A)
                 (A) (A) (A) (A) (A) (A) (A) (A) (A) (A) (A) (A)
                 (A) (A) (A) (A) (A) (A) (A) (A) (A) (A) (A) (A)
                 (A) (A) (A) (A) (A) (A) (A) (A) (A) (A) (A) (A)
                 (A) (A) (A) (A) (A) (A) (A) (A) (A) (A) (A) (A)
                 (A) (A) (A) (A) (A) (A) (A) (A) (A) (A) (A) (A)
                 (A) (A) (A) (A) (A) (A) (A) (A) (A) (A) (A) (A)
                 (A) (A) (A) (A) (A) (A) (A) (A) (A) (A) (A) (A)
                 (A) (A) (A) (A) (A) (A) (A) (A) (A) (A) (A) (A)
                 (A) (A) (A) (A) (A)
 The electronic state is 1-A.
 Alpha  occ. eigenvalues --  -24.84245 -24.83646 -24.83594 -24.83412 -24.82810
 Alpha  occ. eigenvalues --  -24.82627 -19.21323 -19.20981 -19.19992 -19.19824
 Alpha  occ. eigenvalues --  -19.19503 -19.19062 -19.18268 -14.46337 -14.45907
 Alpha  occ. eigenvalues --  -14.42173 -10.52392 -10.51529 -10.34012 -10.33945
 Alpha  occ. eigenvalues --  -10.33412 -10.32901 -10.31477 -10.31093 -10.30602
 Alpha  occ. eigenvalues --  -10.30289 -10.30260 -10.30006 -10.29941 -10.29699
 Alpha  occ. eigenvalues --  -10.29401 -10.29104 -10.29040 -10.28951 -10.28583
 Alpha  occ. eigenvalues --  -10.26278 -10.25621 -10.24905 -10.23755 -10.23712
 Alpha  occ. eigenvalues --  -10.23561 -10.23506 -10.23405 -10.22932 -10.22821
 Alpha  occ. eigenvalues --  -10.22602 -10.22565 -10.22503 -10.22484 -10.22306
 Alpha  occ. eigenvalues --  -10.22256 -10.21915 -10.21604 -10.20507  -6.82150
 Alpha  occ. eigenvalues --   -6.80838  -6.80092  -3.63180  -2.05752  -2.05199
 Alpha  occ. eigenvalues --   -2.04414  -1.36723  -1.35862  -1.28261  -1.27666
 Alpha  occ. eigenvalues --   -1.27397  -1.26795  -1.07087  -1.05944  -1.05352
 Alpha  occ. eigenvalues --   -1.04137  -1.01664  -1.00144  -0.99296  -0.99005
 Alpha  occ. eigenvalues --   -0.98525  -0.93451  -0.87511  -0.86420  -0.84985
 Alpha  occ. eigenvalues --   -0.81320  -0.81239  -0.81186  -0.80093  -0.79939
 Alpha  occ. eigenvalues --   -0.77141  -0.76311  -0.75637  -0.74497  -0.74319
 Alpha  occ. eigenvalues --   -0.73061  -0.71960  -0.71206  -0.70542  -0.70150
 Alpha  occ. eigenvalues --   -0.70052  -0.69755  -0.69349  -0.68380  -0.67191
 Alpha  occ. eigenvalues --   -0.67134  -0.67053  -0.66883  -0.65970  -0.62755
 Alpha  occ. eigenvalues --   -0.62660  -0.62403  -0.61837  -0.61815  -0.61660
 Alpha  occ. eigenvalues --   -0.61552  -0.61215  -0.60707  -0.60408  -0.57930
 Alpha  occ. eigenvalues --   -0.57523  -0.55436  -0.55209  -0.54530  -0.54382
 Alpha  occ. eigenvalues --   -0.54287  -0.53553  -0.53308  -0.52727  -0.52119
 Alpha  occ. eigenvalues --   -0.50795  -0.50474  -0.50191  -0.50136  -0.49508
 Alpha  occ. eigenvalues --   -0.49266  -0.49118  -0.48628  -0.48430  -0.47898
 Alpha  occ. eigenvalues --   -0.47832  -0.47441  -0.47085  -0.46977  -0.46715
 Alpha  occ. eigenvalues --   -0.46639  -0.46486  -0.46175  -0.46172  -0.45880
 Alpha  occ. eigenvalues --   -0.45628  -0.45501  -0.45447  -0.45088  -0.44638
 Alpha  occ. eigenvalues --   -0.44481  -0.44373  -0.44150  -0.43991  -0.43953
 Alpha  occ. eigenvalues --   -0.43763  -0.43487  -0.43094  -0.43029  -0.42775
 Alpha  occ. eigenvalues --   -0.42081  -0.41496  -0.41077  -0.40992  -0.40725
 Alpha  occ. eigenvalues --   -0.40704  -0.40385  -0.40317  -0.40185  -0.40104
 Alpha  occ. eigenvalues --   -0.39959  -0.39674  -0.39613  -0.39435  -0.39257
 Alpha  occ. eigenvalues --   -0.39167  -0.39011  -0.38897  -0.38616  -0.38214
 Alpha  occ. eigenvalues --   -0.37895  -0.37647  -0.37417  -0.37324  -0.37272
 Alpha  occ. eigenvalues --   -0.37022  -0.36916  -0.36710  -0.36490  -0.36144
 Alpha  occ. eigenvalues --   -0.35865  -0.35769  -0.35598  -0.35336  -0.35134
 Alpha  occ. eigenvalues --   -0.34745  -0.34513  -0.34187  -0.34031  -0.33862
 Alpha  occ. eigenvalues --   -0.33458  -0.33046  -0.32855  -0.32747  -0.32333
 Alpha  occ. eigenvalues --   -0.32176  -0.32000  -0.31530  -0.31114  -0.31100
 Alpha  occ. eigenvalues --   -0.30755  -0.29977  -0.29317  -0.28815  -0.28394
 Alpha  occ. eigenvalues --   -0.28140  -0.27847  -0.26868  -0.25884  -0.25608
 Alpha  occ. eigenvalues --   -0.25370  -0.24614  -0.22512  -0.21637  -0.20626
 Alpha virt. eigenvalues --   -0.09076  -0.05697  -0.04292  -0.01017   0.02031
 Alpha virt. eigenvalues --    0.02469   0.04154   0.05360   0.06334   0.07029
 Alpha virt. eigenvalues --    0.07581   0.07735   0.08133   0.08734   0.09757
 Alpha virt. eigenvalues --    0.10489   0.10958   0.11023   0.11351   0.11877
 Alpha virt. eigenvalues --    0.12029   0.12318   0.12445   0.12684   0.12872
 Alpha virt. eigenvalues --    0.13081   0.13357   0.13681   0.13858   0.14052
 Alpha virt. eigenvalues --    0.14354   0.14423   0.14541   0.14831   0.14946
 Alpha virt. eigenvalues --    0.15250   0.15503   0.15609   0.15686   0.15980
 Alpha virt. eigenvalues --    0.16167   0.16250   0.16445   0.16701   0.16916
 Alpha virt. eigenvalues --    0.17160   0.17393   0.17435   0.17580   0.17898
 Alpha virt. eigenvalues --    0.18127   0.18151   0.18450   0.18649   0.18724
 Alpha virt. eigenvalues --    0.19143   0.19181   0.19295   0.19625   0.19682
 Alpha virt. eigenvalues --    0.19796   0.19962   0.20146   0.20266   0.20430
 Alpha virt. eigenvalues --    0.20470   0.20584   0.20805   0.20961   0.21125
 Alpha virt. eigenvalues --    0.21285   0.21632   0.21989   0.22077   0.22381
 Alpha virt. eigenvalues --    0.22497   0.22819   0.22869   0.23015   0.23161
 Alpha virt. eigenvalues --    0.23221   0.23636   0.23756   0.23960   0.24019
 Alpha virt. eigenvalues --    0.24088   0.24333   0.24342   0.24828   0.25412
 Alpha virt. eigenvalues --    0.25525   0.25883   0.26108   0.26202   0.26404
 Alpha virt. eigenvalues --    0.26587   0.26849   0.27382   0.27472   0.27864
 Alpha virt. eigenvalues --    0.28125   0.28344   0.28641   0.28864   0.29259
 Alpha virt. eigenvalues --    0.29678   0.30202   0.30640   0.30851   0.31625
 Alpha virt. eigenvalues --    0.32058   0.32173   0.32948   0.33492   0.34570
 Alpha virt. eigenvalues --    0.34784   0.35089   0.35328   0.35967   0.36103
 Alpha virt. eigenvalues --    0.36363   0.36754   0.37782   0.38128   0.38537
 Alpha virt. eigenvalues --    0.39189   0.39890   0.41411   0.41573   0.42861
 Alpha virt. eigenvalues --    0.44000   0.45239   0.45914   0.46377   0.46628
 Alpha virt. eigenvalues --    0.47093   0.48050   0.48342   0.49227   0.49656
 Alpha virt. eigenvalues --    0.49878   0.50227   0.50399   0.50744   0.51177
 Alpha virt. eigenvalues --    0.51515   0.51724   0.51845   0.52185   0.52845
 Alpha virt. eigenvalues --    0.53150   0.53810   0.54090   0.54379   0.54741
 Alpha virt. eigenvalues --    0.55127   0.55593   0.55889   0.56122   0.56192
 Alpha virt. eigenvalues --    0.56302   0.56548   0.57012   0.57462   0.57695
 Alpha virt. eigenvalues --    0.57815   0.58322   0.58452   0.58752   0.58991
 Alpha virt. eigenvalues --    0.59195   0.59606   0.59633   0.60043   0.60257
 Alpha virt. eigenvalues --    0.60590   0.60903   0.61095   0.61169   0.61880
 Alpha virt. eigenvalues --    0.61944   0.62186   0.62547   0.62830   0.63070
 Alpha virt. eigenvalues --    0.63427   0.63972   0.64026   0.64538   0.64577
 Alpha virt. eigenvalues --    0.64947   0.65336   0.65710   0.65874   0.66328
 Alpha virt. eigenvalues --    0.66765   0.67084   0.67440   0.67844   0.67959
 Alpha virt. eigenvalues --    0.68050   0.68720   0.69103   0.69237   0.69723
 Alpha virt. eigenvalues --    0.69822   0.70278   0.70568   0.71066   0.71133
 Alpha virt. eigenvalues --    0.71496   0.71600   0.71913   0.72041   0.72417
 Alpha virt. eigenvalues --    0.72945   0.73231   0.73631   0.74080   0.74255
 Alpha virt. eigenvalues --    0.74445   0.74791   0.75220   0.75538   0.75970
 Alpha virt. eigenvalues --    0.76394   0.76979   0.77026   0.77558   0.77659
 Alpha virt. eigenvalues --    0.78182   0.78450   0.79102   0.79255   0.79859
 Alpha virt. eigenvalues --    0.80174   0.80721   0.81214   0.81382   0.81742
 Alpha virt. eigenvalues --    0.82380   0.83117   0.83297   0.83390   0.83518
 Alpha virt. eigenvalues --    0.83875   0.84071   0.84195   0.84333   0.84680
 Alpha virt. eigenvalues --    0.84856   0.85360   0.85490   0.85551   0.86056
 Alpha virt. eigenvalues --    0.86110   0.86345   0.86583   0.86871   0.87039
 Alpha virt. eigenvalues --    0.87199   0.87476   0.87534   0.87991   0.88311
 Alpha virt. eigenvalues --    0.88550   0.88649   0.89109   0.89214   0.89525
 Alpha virt. eigenvalues --    0.89773   0.89876   0.90096   0.90155   0.90314
 Alpha virt. eigenvalues --    0.90731   0.91011   0.91310   0.91346   0.91417
 Alpha virt. eigenvalues --    0.91872   0.92487   0.92577   0.92728   0.93106
 Alpha virt. eigenvalues --    0.93474   0.93623   0.93856   0.94064   0.94250
 Alpha virt. eigenvalues --    0.94809   0.94978   0.95530   0.95772   0.95972
 Alpha virt. eigenvalues --    0.96254   0.96571   0.97010   0.97331   0.97481
 Alpha virt. eigenvalues --    0.97705   0.98246   0.98387   0.98991   0.99309
 Alpha virt. eigenvalues --    0.99936   1.00479   1.00763   1.01160   1.01253
 Alpha virt. eigenvalues --    1.01759   1.02197   1.02576   1.03536   1.04181
 Alpha virt. eigenvalues --    1.04355   1.04685   1.05213   1.06181   1.06547
 Alpha virt. eigenvalues --    1.07096   1.07582   1.07765   1.08753   1.08792
 Alpha virt. eigenvalues --    1.09352   1.10035   1.10451   1.11194   1.11756
 Alpha virt. eigenvalues --    1.12081   1.13057   1.13286   1.13359   1.13532
 Alpha virt. eigenvalues --    1.14135   1.14930   1.15889   1.16463   1.16904
 Alpha virt. eigenvalues --    1.17001   1.17584   1.17967   1.18583   1.19048
 Alpha virt. eigenvalues --    1.19288   1.19710   1.19891   1.20382   1.21231
 Alpha virt. eigenvalues --    1.21575   1.21768   1.21962   1.22813   1.23358
 Alpha virt. eigenvalues --    1.24279   1.24943   1.25251   1.25463   1.26072
 Alpha virt. eigenvalues --    1.26364   1.26789   1.27310   1.27606   1.28299
 Alpha virt. eigenvalues --    1.28565   1.29236   1.30131   1.30317   1.30953
 Alpha virt. eigenvalues --    1.31763   1.32216   1.32453   1.33427   1.33663
 Alpha virt. eigenvalues --    1.34261   1.34515   1.34896   1.35200   1.35472
 Alpha virt. eigenvalues --    1.36357   1.36652   1.36929   1.37363   1.37695
 Alpha virt. eigenvalues --    1.38173   1.38356   1.38596   1.39006   1.39163
 Alpha virt. eigenvalues --    1.39892   1.40125   1.40444   1.41244   1.41501
 Alpha virt. eigenvalues --    1.41978   1.42547   1.42897   1.43269   1.43639
 Alpha virt. eigenvalues --    1.43932   1.44452   1.44887   1.45233   1.45514
 Alpha virt. eigenvalues --    1.46285   1.46776   1.47227   1.47646   1.48823
 Alpha virt. eigenvalues --    1.49682   1.50272   1.50404   1.51054   1.51190
 Alpha virt. eigenvalues --    1.51840   1.52469   1.53022   1.54287   1.54896
 Alpha virt. eigenvalues --    1.55491   1.56540   1.57051   1.59108   1.59968
 Alpha virt. eigenvalues --    1.60062   1.61355   1.61590   1.62480   1.63587
 Alpha virt. eigenvalues --    1.63659   1.64188   1.64521   1.64651   1.65599
 Alpha virt. eigenvalues --    1.66202   1.66368   1.67183   1.67663   1.67911
 Alpha virt. eigenvalues --    1.68443   1.69040   1.69718   1.70113   1.70429
 Alpha virt. eigenvalues --    1.70730   1.71410   1.71633   1.72161   1.72723
 Alpha virt. eigenvalues --    1.73096   1.73543   1.74599   1.74915   1.75517
 Alpha virt. eigenvalues --    1.75950   1.76133   1.76804   1.77205   1.77666
 Alpha virt. eigenvalues --    1.77806   1.78481   1.78997   1.79337   1.79537
 Alpha virt. eigenvalues --    1.79737   1.80352   1.81233   1.81508   1.81874
 Alpha virt. eigenvalues --    1.82209   1.82430   1.82853   1.83956   1.84072
 Alpha virt. eigenvalues --    1.84268   1.84966   1.85049   1.85553   1.85983
 Alpha virt. eigenvalues --    1.86364   1.86793   1.87128   1.87295   1.87636
 Alpha virt. eigenvalues --    1.87885   1.87903   1.88986   1.89347   1.89848
 Alpha virt. eigenvalues --    1.90140   1.90549   1.91060   1.91291   1.91640
 Alpha virt. eigenvalues --    1.91724   1.91980   1.92057   1.92369   1.92421
 Alpha virt. eigenvalues --    1.92676   1.92980   1.93330   1.93690   1.94019
 Alpha virt. eigenvalues --    1.94478   1.94651   1.95003   1.95284   1.95633
 Alpha virt. eigenvalues --    1.95852   1.96250   1.96829   1.97028   1.97992
 Alpha virt. eigenvalues --    1.98237   1.98950   1.99217   1.99738   2.00091
 Alpha virt. eigenvalues --    2.01124   2.01356   2.01533   2.01803   2.02254
 Alpha virt. eigenvalues --    2.02541   2.02984   2.03045   2.03306   2.03650
 Alpha virt. eigenvalues --    2.03748   2.04256   2.04683   2.05408   2.05657
 Alpha virt. eigenvalues --    2.06030   2.06389   2.06862   2.07262   2.07581
 Alpha virt. eigenvalues --    2.08015   2.08283   2.08464   2.08635   2.08940
 Alpha virt. eigenvalues --    2.09064   2.09574   2.09707   2.09985   2.10053
 Alpha virt. eigenvalues --    2.10566   2.11176   2.11577   2.11839   2.12353
 Alpha virt. eigenvalues --    2.12680   2.12945   2.13488   2.13750   2.14440
 Alpha virt. eigenvalues --    2.14635   2.14770   2.15144   2.15705   2.16250
 Alpha virt. eigenvalues --    2.16396   2.17021   2.17386   2.17487   2.17727
 Alpha virt. eigenvalues --    2.18178   2.18440   2.18584   2.18884   2.19060
 Alpha virt. eigenvalues --    2.19468   2.20554   2.21151   2.21384   2.21532
 Alpha virt. eigenvalues --    2.21879   2.22391   2.22756   2.23351   2.23546
 Alpha virt. eigenvalues --    2.23799   2.24322   2.24667   2.24913   2.25546
 Alpha virt. eigenvalues --    2.25805   2.26235   2.26284   2.26681   2.27155
 Alpha virt. eigenvalues --    2.27849   2.28050   2.28310   2.28717   2.29085
 Alpha virt. eigenvalues --    2.29807   2.30641   2.31095   2.31575   2.32322
 Alpha virt. eigenvalues --    2.32756   2.32908   2.33237   2.34029   2.34418
 Alpha virt. eigenvalues --    2.34888   2.35786   2.36436   2.36788   2.37537
 Alpha virt. eigenvalues --    2.38108   2.38902   2.39640   2.39865   2.40632
 Alpha virt. eigenvalues --    2.40759   2.42547   2.43914   2.44291   2.45031
 Alpha virt. eigenvalues --    2.45667   2.46301   2.46905   2.47933   2.48400
 Alpha virt. eigenvalues --    2.48675   2.48937   2.49113   2.49856   2.50372
 Alpha virt. eigenvalues --    2.50897   2.51221   2.51531   2.52132   2.52916
 Alpha virt. eigenvalues --    2.53422   2.57463   2.58059   2.59820   2.60140
 Alpha virt. eigenvalues --    2.60590   2.61218   2.61989   2.62161   2.63215
 Alpha virt. eigenvalues --    2.63457   2.64211   2.65413   2.65992   2.66603
 Alpha virt. eigenvalues --    2.67250   2.67666   2.68754   2.70673   2.71718
 Alpha virt. eigenvalues --    2.74855   2.76316   2.76864   2.76959   2.77089
 Alpha virt. eigenvalues --    2.77606   2.77785   2.77965   2.78832   2.79526
 Alpha virt. eigenvalues --    2.79820   2.80230   2.80703   2.81164   2.81266
 Alpha virt. eigenvalues --    2.81876   2.82344   2.82982   2.83583   2.85048
 Alpha virt. eigenvalues --    2.86310   2.87719   2.88375   2.90055   2.90696
 Alpha virt. eigenvalues --    2.91174   2.93943   2.94182   2.94369   2.95134
 Alpha virt. eigenvalues --    2.95778   2.96653   2.99098   3.03067   3.04411
 Alpha virt. eigenvalues --    3.04554   3.05416   3.05599   3.05887   3.06724
 Alpha virt. eigenvalues --    3.08076   3.08864   3.10169   3.11456   3.12930
 Alpha virt. eigenvalues --    3.14092   3.14487   3.16384   3.21463   3.27006
 Alpha virt. eigenvalues --    3.31779   3.44651  12.22568
          Condensed to atoms (all electrons):
 Mulliken charges:
               1
     1  C    0.313595
     2  C    0.019465
     3  C   -0.060044
     4  C   -0.164359
     5  C   -0.182990
     6  C    0.356157
     7  C    0.087219
     8  C   -0.081971
     9  C   -0.148716
    10  C   -0.189595
    11  H    0.236343
    12  H    0.204807
    13  H    0.182861
    14  H    0.225950
    15  H    0.201622
    16  H    0.178230
    17  N   -0.485608
    18  N   -0.526513
    19  Ir  -0.351617
    20  O   -0.522398
    21  O   -0.539414
    22  O   -0.497495
    23  B    0.696621
    24  B    0.489131
    25  B    0.416923
    26  O   -0.501753
    27  O   -0.521878
    28  C    0.297637
    29  C    0.286330
    30  C    0.294264
    31  C    0.293564
    32  C    0.305311
    33  C    0.308860
    34  O   -0.532652
    35  C   -0.512812
    36  H    0.171129
    37  H    0.167958
    38  H    0.151230
    39  C   -0.514192
    40  H    0.180623
    41  H    0.165562
    42  H    0.147849
    43  C   -0.512206
    44  H    0.187345
    45  H    0.158548
    46  H    0.145633
    47  C   -0.505415
    48  H    0.165765
    49  H    0.173642
    50  H    0.146587
    51  C   -0.509988
    52  H    0.154344
    53  H    0.174464
    54  H    0.154067
    55  C   -0.513323
    56  H    0.166294
    57  H    0.166237
    58  H    0.152008
    59  C   -0.508349
    60  H    0.154849
    61  H    0.149128
    62  H    0.169859
    63  C   -0.525977
    64  H    0.213625
    65  H    0.167764
    66  H    0.135252
    67  C   -0.504801
    68  H    0.179547
    69  H    0.172000
    70  H    0.148836
    71  C   -0.505595
    72  H    0.151608
    73  H    0.156589
    74  H    0.176806
    75  C   -0.498089
    76  H    0.142658
    77  H    0.155526
    78  H    0.173883
    79  C   -0.512958
    80  H    0.172466
    81  H    0.152891
    82  H    0.173843
    83  H    0.194491
    84  C    0.597862
    85  O   -0.532460
    86  C   -0.423396
    87  H    0.175223
    88  H    0.161994
    89  C   -0.396136
    90  H    0.198150
    91  H    0.240947
    92  N   -0.372468
    93  C   -0.353711
    94  H    0.212910
    95  H    0.167019
    96  H    0.172580
    97  C   -0.257113
    98  H    0.137573
    99  H    0.131357
   100  C   -0.280087
   101  H    0.174124
   102  H    0.131909
   103  C   -0.280951
   104  H    0.141839
   105  H    0.141572
   106  C   -0.498644
   107  H    0.162761
   108  H    0.159069
   109  H    0.160609
   110  C    0.973435
   111  F   -0.305005
   112  F   -0.302811
   113  F   -0.314781
   114  C    0.970524
   115  F   -0.306815
   116  F   -0.304087
   117  F   -0.318087
 Sum of Mulliken charges =  -0.00000
 Mulliken charges with hydrogens summed into heavy atoms:
               1
     1  C    0.313595
     2  C    0.255809
     3  C   -0.060044
     4  C    0.040448
     5  C   -0.000129
     6  C    0.356157
     7  C    0.313169
     8  C   -0.081971
     9  C    0.052906
    10  C   -0.011365
    17  N   -0.485608
    18  N   -0.526513
    19  Ir  -0.157126
    20  O   -0.522398
    21  O   -0.539414
    22  O   -0.497495
    23  B    0.696621
    24  B    0.489131
    25  B    0.416923
    26  O   -0.501753
    27  O   -0.521878
    28  C    0.297637
    29  C    0.286330
    30  C    0.294264
    31  C    0.293564
    32  C    0.305311
    33  C    0.308860
    34  O   -0.532652
    35  C   -0.022495
    39  C   -0.020158
    43  C   -0.020679
    47  C   -0.019421
    51  C   -0.027114
    55  C   -0.028784
    59  C   -0.034513
    63  C   -0.009336
    67  C   -0.004417
    71  C   -0.020593
    75  C   -0.026022
    79  C   -0.013758
    84  C    0.597862
    85  O   -0.532460
    86  C   -0.086178
    89  C    0.042961
    92  N   -0.372468
    93  C    0.198798
    97  C    0.011818
   100  C    0.025946
   103  C    0.002460
   106  C   -0.016205
   110  C    0.973435
   111  F   -0.305005
   112  F   -0.302811
   113  F   -0.314781
   114  C    0.970524
   115  F   -0.306815
   116  F   -0.304087
   117  F   -0.318087
 APT charges:
               1
     1  C    0.275979
     2  C    0.104548
     3  C   -0.241706
     4  C    0.117139
     5  C   -0.202223
     6  C    0.206827
     7  C    0.072222
     8  C   -0.201890
     9  C    0.109668
    10  C   -0.184066
    11  H    0.080754
    12  H    0.075409
    13  H    0.051602
    14  H    0.127066
    15  H    0.067882
    16  H    0.046737
    17  N   -0.219503
    18  N   -0.128675
    19  Ir  -0.743986
    20  O   -0.981091
    21  O   -1.082412
    22  O   -0.952819
    23  B    1.617253
    24  B    1.264220
    25  B    1.220853
    26  O   -0.929794
    27  O   -0.963822
    28  C    0.505008
    29  C    0.480674
    30  C    0.455426
    31  C    0.465907
    32  C    0.536160
    33  C    0.550594
    34  O   -1.059275
    35  C    0.000183
    36  H   -0.000148
    37  H   -0.005387
    38  H   -0.020038
    39  C   -0.048783
    40  H    0.031049
    41  H    0.003654
    42  H   -0.026153
    43  C   -0.032064
    44  H    0.033699
    45  H   -0.012876
    46  H   -0.025577
    47  C   -0.007762
    48  H   -0.003543
    49  H    0.000991
    50  H   -0.018686
    51  C   -0.059374
    52  H   -0.005015
    53  H    0.007987
    54  H   -0.028725
    55  C   -0.005034
    56  H    0.000435
    57  H    0.001657
    58  H   -0.023603
    59  C   -0.011065
    60  H   -0.009861
    61  H   -0.019164
    62  H    0.001190
    63  C   -0.059542
    64  H    0.063384
    65  H   -0.001069
    66  H   -0.032224
    67  C   -0.026590
    68  H    0.006272
    69  H    0.009708
    70  H   -0.022974
    71  C    0.003927
    72  H   -0.015150
    73  H   -0.009120
    74  H    0.005496
    75  C   -0.015979
    76  H   -0.020419
    77  H   -0.018701
    78  H    0.005403
    79  C   -0.006801
    80  H    0.003173
    81  H   -0.018261
    82  H    0.007410
    83  H    0.000826
    84  C    0.874629
    85  O   -0.721890
    86  C   -0.014862
    87  H   -0.012653
    88  H   -0.029231
    89  C   -0.069430
    90  H   -0.050513
    91  H    0.080030
    92  N   -0.701444
    93  C    0.269965
    94  H    0.012564
    95  H   -0.000211
    96  H   -0.003838
    97  C    0.114737
    98  H   -0.045847
    99  H   -0.029689
   100  C    0.075994
   101  H    0.007840
   102  H   -0.057812
   103  C    0.127467
   104  H   -0.055117
   105  H   -0.052790
   106  C    0.061108
   107  H   -0.014205
   108  H   -0.019909
   109  H   -0.040070
   110  C    1.780787
   111  F   -0.571689
   112  F   -0.557103
   113  F   -0.567592
   114  C    1.787593
   115  F   -0.550922
   116  F   -0.559210
   117  F   -0.584105
 Sum of APT charges =  -0.00000
 APT charges with hydrogens summed into heavy atoms:
               1
     1  C    0.275979
     2  C    0.185302
     3  C   -0.241706
     4  C    0.192548
     5  C   -0.150621
     6  C    0.206827
     7  C    0.199288
     8  C   -0.201890
     9  C    0.177551
    10  C   -0.137328
    17  N   -0.219503
    18  N   -0.128675
    19  Ir  -0.743160
    20  O   -0.981091
    21  O   -1.082412
    22  O   -0.952819
    23  B    1.617253
    24  B    1.264220
    25  B    1.220853
    26  O   -0.929794
    27  O   -0.963822
    28  C    0.505008
    29  C    0.480674
    30  C    0.455426
    31  C    0.465907
    32  C    0.536160
    33  C    0.550594
    34  O   -1.059275
    35  C   -0.025390
    39  C   -0.040233
    43  C   -0.036818
    47  C   -0.029000
    51  C   -0.085127
    55  C   -0.026546
    59  C   -0.038901
    63  C   -0.029451
    67  C   -0.033584
    71  C   -0.014847
    75  C   -0.049696
    79  C   -0.014479
    84  C    0.874629
    85  O   -0.721890
    86  C   -0.056746
    89  C   -0.039913
    92  N   -0.701444
    93  C    0.278480
    97  C    0.039201
   100  C    0.026023
   103  C    0.019560
   106  C   -0.013076
   110  C    1.780787
   111  F   -0.571689
   112  F   -0.557103
   113  F   -0.567592
   114  C    1.787593
   115  F   -0.550922
   116  F   -0.559210
   117  F   -0.584105
 Electronic spatial extent (au):  <R**2>=          37357.5678
 Charge=              0.0000 electrons
 Dipole moment (field-independent basis, Debye):
    X=              3.1180    Y=              1.4756    Z=              3.2770  Tot=              4.7580
 Quadrupole moment (field-independent basis, Debye-Ang):
   XX=           -345.0016   YY=           -356.4466   ZZ=           -340.1547
   XY=              0.9933   XZ=             13.2014   YZ=             13.1287
 Traceless Quadrupole moment (field-independent basis, Debye-Ang):
   XX=              2.1994   YY=             -9.2457   ZZ=              7.0463
   XY=              0.9933   XZ=             13.2014   YZ=             13.1287
 Octapole moment (field-independent basis, Debye-Ang**2):
  XXX=            -58.8600  YYY=             98.0432  ZZZ=             17.9024  XYY=            -30.1323
  XXY=             16.6382  XXZ=             20.3493  XZZ=             55.4109  YZZ=            -21.9139
  YYZ=             -5.9326  XYZ=             -4.9982
 Hexadecapole moment (field-independent basis, Debye-Ang**3):
 XXXX=         -22875.1238 YYYY=         -13669.2060 ZZZZ=         -10673.8981 XXXY=            375.1951
 XXXZ=           -106.1442 YYYX=            361.2227 YYYZ=           -146.4991 ZZZX=            -15.0096
 ZZZY=           -301.9530 XXYY=          -6291.1236 XXZZ=          -5511.1069 YYZZ=          -4087.2634
 XXYZ=             75.7486 YYXZ=            -14.7902 ZZXY=             84.7009
 N-N= 1.048601091388D+04 E-N=-2.785103733431D+04  KE= 2.862709660963D+03
  Exact polarizability:     574.333      30.710     482.718      27.321      -7.679     503.531
 Approx polarizability:     778.564      80.053     690.010      35.106     -46.384     784.875
   1 Symmetry operations used in ECPInt.
 ECPInt:  NShTT=   62835 NPrTT=  387974 LenC2=   45156 LenP2D=  137564.
 LDataN:  DoStor=T MaxTD1= 8 Len=  415
 Calling FoFJK, ICntrl=    100127 FMM=F ISym2X=0 I1Cent= 0 IOpClX= 0 NMat=1 NMatS=1 NMatT=0.
 Defaulting to unpruned grid for atomic number  77.
 Defaulting to unpruned grid for atomic number  77.
 Defaulting to unpruned grid for atomic number  77.
 Defaulting to unpruned grid for atomic number  77.
 Defaulting to unpruned grid for atomic number  77.
 Defaulting to unpruned grid for atomic number  77.
 Defaulting to unpruned grid for atomic number  77.
 Defaulting to unpruned grid for atomic number  77.
 Defaulting to unpruned grid for atomic number  77.
 Defaulting to unpruned grid for atomic number  77.
 Defaulting to unpruned grid for atomic number  77.
 Defaulting to unpruned grid for atomic number  77.
 Defaulting to unpruned grid for atomic number  77.
 Defaulting to unpruned grid for atomic number  77.
 Defaulting to unpruned grid for atomic number  77.
 Defaulting to unpruned grid for atomic number  77.
 Full mass-weighted force constant matrix:
 Low frequencies ---  -81.2660   -6.2362   -5.3593   -0.0004   -0.0002    0.0003
 Low frequencies ---    3.9297   14.2589   20.7410
 ******    1 imaginary frequencies (negative Signs) ****** 
 Diagonal vibrational polarizability:
      108.3724144     114.0870220      77.3144676
 Harmonic frequencies (cm**-1), IR intensities (KM/Mole), Raman scattering
 activities (A**4/AMU), depolarization ratios for plane and unpolarized
 incident light, reduced masses (AMU), force constants (mDyne/A),
 and normal coordinates:
                      1                      2                      3
                      A                      A                      A
 Frequencies --    -81.2657                14.0476                20.7231
 Red. masses --      7.0465                 5.1676                 5.6972
 Frc consts  --      0.0274                 0.0006                 0.0014
 IR Inten    --      3.0037                 0.0873                 0.0420
  Atom AN      X      Y      Z        X      Y      Z        X      Y      Z
     1   6     0.04  -0.01  -0.00     0.00   0.03  -0.02     0.01   0.00  -0.04
     2   6     0.05  -0.04  -0.01    -0.01   0.01  -0.03    -0.02   0.00  -0.04
     3   6     0.03   0.01   0.00    -0.01   0.03  -0.04    -0.01   0.00  -0.06
     4   6     0.02   0.04   0.01    -0.01   0.04  -0.03     0.01  -0.00  -0.07
     5   6     0.02   0.03   0.01    -0.00   0.04  -0.03     0.02  -0.00  -0.06
     6   6     0.04  -0.00   0.01     0.01   0.02  -0.02     0.01   0.02  -0.02
     7   6     0.01   0.04   0.03     0.03  -0.02  -0.02     0.01   0.03   0.02
     8   6     0.02   0.01   0.02     0.05  -0.02  -0.03     0.00   0.06   0.04
     9   6     0.04  -0.02  -0.00     0.05  -0.01  -0.03     0.00   0.08   0.03
    10   6     0.05  -0.02  -0.00     0.03   0.01  -0.03     0.01   0.05   0.00
    11   1     0.06  -0.07  -0.03    -0.01   0.00  -0.03    -0.03   0.00  -0.04
    12   1    -0.00   0.07   0.02    -0.01   0.05  -0.04     0.02  -0.00  -0.08
    13   1     0.00   0.06   0.03    -0.00   0.06  -0.02     0.04  -0.01  -0.06
    14   1    -0.01   0.08   0.05     0.04  -0.03  -0.02     0.00   0.02   0.03
    15   1     0.05  -0.04  -0.01     0.06  -0.01  -0.03     0.00   0.11   0.04
    16   1     0.06  -0.05  -0.02     0.03   0.03  -0.03     0.01   0.07  -0.00
    17   7     0.06  -0.05  -0.02    -0.00   0.02  -0.03    -0.01   0.00  -0.03
    18   7     0.02   0.03   0.03     0.02   0.00  -0.02     0.01   0.01  -0.01
    19  77    -0.01   0.05   0.06    -0.00  -0.00  -0.02    -0.01  -0.01  -0.01
    20   8    -0.03  -0.04  -0.00    -0.01   0.01   0.04    -0.01  -0.03  -0.04
    21   8     0.09  -0.08  -0.07    -0.03   0.04  -0.02     0.01   0.00  -0.04
    22   8    -0.01   0.01  -0.03     0.03   0.00   0.00     0.01  -0.07   0.07
    23   5     0.20  -0.25  -0.14    -0.02   0.04  -0.00     0.00   0.01  -0.02
    24   5    -0.02  -0.04  -0.00     0.00   0.00   0.02    -0.01  -0.02  -0.02
    25   5     0.01   0.02  -0.02     0.00   0.00  -0.01    -0.02  -0.02   0.04
    26   8     0.02   0.02  -0.01    -0.02   0.01  -0.03    -0.04   0.00   0.06
    27   8    -0.03  -0.03   0.00     0.02  -0.02   0.02    -0.02  -0.02  -0.03
    28   6    -0.03  -0.03  -0.00     0.02  -0.03   0.03    -0.02  -0.02  -0.04
    29   6    -0.02  -0.03  -0.00     0.00  -0.01   0.05    -0.01  -0.03  -0.04
    30   6    -0.00   0.00  -0.01     0.02   0.01  -0.01     0.03  -0.09   0.11
    31   6     0.00   0.01  -0.01    -0.02   0.01  -0.02     0.01  -0.02   0.13
    32   6     0.01  -0.01  -0.05    -0.02   0.05  -0.03     0.02   0.01  -0.05
    33   6     0.04  -0.02  -0.04    -0.00   0.06  -0.02     0.03   0.01  -0.04
    34   8     0.11  -0.14  -0.11    -0.00   0.04  -0.01     0.02   0.01  -0.02
    35   6    -0.02  -0.01   0.00    -0.01  -0.00   0.06    -0.01  -0.03  -0.05
    36   1    -0.01  -0.01  -0.00    -0.02   0.01   0.08    -0.00  -0.03  -0.05
    37   1    -0.04  -0.01   0.00    -0.01   0.01   0.05    -0.01  -0.03  -0.04
    38   1    -0.02   0.01   0.00    -0.00  -0.02   0.07    -0.01  -0.02  -0.05
    39   6    -0.00  -0.03  -0.00     0.00  -0.02   0.08    -0.01  -0.02  -0.05
    40   1     0.00  -0.04  -0.00     0.01  -0.03   0.07    -0.01  -0.02  -0.05
    41   1     0.01  -0.03  -0.00    -0.01  -0.01   0.09     0.01  -0.03  -0.06
    42   1     0.00  -0.01  -0.00     0.01  -0.04   0.09    -0.01  -0.01  -0.06
    43   6    -0.02  -0.03  -0.01     0.03  -0.03   0.01    -0.01  -0.02  -0.03
    44   1    -0.01  -0.02  -0.01     0.02  -0.01   0.00    -0.01  -0.03  -0.03
    45   1    -0.02  -0.03  -0.01     0.04  -0.04  -0.01    -0.01  -0.02  -0.02
    46   1    -0.02  -0.03  -0.02     0.03  -0.04   0.02    -0.01  -0.03  -0.03
    47   6    -0.04  -0.03  -0.00     0.03  -0.06   0.04    -0.03  -0.01  -0.04
    48   1    -0.04  -0.03  -0.00     0.04  -0.07   0.02    -0.05  -0.00  -0.03
    49   1    -0.04  -0.03  -0.00     0.02  -0.06   0.05    -0.03  -0.01  -0.04
    50   1    -0.04  -0.03  -0.01     0.02  -0.07   0.05    -0.03   0.00  -0.06
    51   6    -0.05  -0.03  -0.10    -0.03   0.05  -0.04     0.02   0.01  -0.05
    52   1    -0.06  -0.06  -0.13    -0.03   0.04  -0.03     0.03   0.01  -0.04
    53   1    -0.05  -0.04  -0.11    -0.04   0.04  -0.04     0.01   0.00  -0.05
    54   1    -0.09   0.01  -0.10    -0.03   0.06  -0.04     0.03   0.01  -0.06
    55   6     0.02   0.06  -0.00    -0.02   0.07  -0.04     0.02   0.00  -0.06
    56   1     0.00   0.05  -0.01    -0.03   0.06  -0.05     0.01   0.00  -0.07
    57   1     0.08   0.07   0.03    -0.01   0.07  -0.03     0.02   0.00  -0.06
    58   1    -0.03   0.09   0.01    -0.02   0.08  -0.05     0.03   0.01  -0.07
    59   6    -0.07   0.00  -0.07    -0.00   0.07  -0.02     0.05   0.01  -0.04
    60   1    -0.11  -0.03  -0.13    -0.01   0.07  -0.03     0.05   0.02  -0.03
    61   1    -0.11   0.06  -0.03    -0.01   0.08  -0.03     0.05   0.01  -0.05
    62   1    -0.06  -0.00  -0.07     0.00   0.07  -0.01     0.05   0.02  -0.03
    63   6     0.12   0.04   0.04     0.01   0.07  -0.00     0.02   0.01  -0.05
    64   1     0.18   0.02   0.06     0.01   0.05   0.00     0.01   0.00  -0.05
    65   1     0.15   0.03   0.05     0.02   0.07   0.01     0.03   0.01  -0.04
    66   1     0.09   0.12   0.07     0.01   0.09  -0.01     0.03   0.00  -0.06
    67   6     0.00   0.01  -0.01    -0.04  -0.01   0.00     0.01   0.04   0.19
    68   1     0.00   0.01  -0.01    -0.06  -0.01  -0.00    -0.01   0.09   0.19
    69   1     0.00   0.00  -0.01    -0.03  -0.01   0.02    -0.00   0.07   0.18
    70   1    -0.00   0.00  -0.01    -0.04  -0.01   0.01     0.05   0.03   0.24
    71   6    -0.00   0.02  -0.00    -0.03   0.01  -0.05     0.03  -0.05   0.15
    72   1    -0.01   0.01   0.00    -0.02   0.01  -0.05     0.08  -0.08   0.20
    73   1     0.00   0.02   0.00    -0.02   0.02  -0.07     0.03  -0.10   0.09
    74   1     0.00   0.03   0.00    -0.05   0.01  -0.06     0.01   0.00   0.16
    75   6    -0.00  -0.01  -0.01     0.04   0.03  -0.04     0.04  -0.13   0.08
    76   1    -0.00  -0.00  -0.02     0.03   0.03  -0.05     0.03  -0.11   0.05
    77   1    -0.00  -0.01  -0.00     0.03   0.03  -0.05     0.06  -0.15   0.12
    78   1    -0.01  -0.01  -0.02     0.06   0.03  -0.03     0.05  -0.17   0.06
    79   6     0.00   0.00  -0.01     0.03   0.00   0.00     0.05  -0.11   0.17
    80   1    -0.00  -0.00  -0.01     0.05   0.00   0.01     0.07  -0.15   0.15
    81   1     0.01   0.00  -0.01     0.02   0.01  -0.01     0.06  -0.12   0.21
    82   1     0.00   0.01  -0.01     0.01  -0.01   0.02     0.04  -0.08   0.19
    83   1    -0.11  -0.01   0.03    -0.01   0.01  -0.01    -0.02   0.01  -0.00
    84   6    -0.08  -0.05  -0.04    -0.02  -0.02   0.05     0.01  -0.00  -0.00
    85   8    -0.10  -0.09  -0.06    -0.05  -0.02   0.05     0.00   0.00  -0.00
    86   6    -0.07  -0.01   0.01    -0.01  -0.04   0.08     0.01  -0.01   0.00
    87   1    -0.03   0.00   0.00     0.01  -0.05   0.09     0.01  -0.02   0.01
    88   1    -0.07  -0.01   0.02     0.01  -0.04   0.06     0.02  -0.01  -0.00
[...]
 .00001340,-0.00004889,-0.00005729,0.00002588,0.00005832,0.00014587,-0.
 00000320,-0.00000550,-0.00002373,-0.00000122,0.00000740,0.00000180,0.0
 0000444,0.00000951,0.00001563,0.00001434,-0.00001065,0.00000166,0.0000
 0206,0.00000835,0.00000820,-0.00000148,0.00001599,0.00000931,-0.000006
 02,-0.00000005,0.00000064,0.00001331,-0.00002347,0.00001383,0.00000186
 ,-0.00003190,0.00010452,0.00007929,0.00004442,-0.00006300,0.00010462,0
 .00008728,-0.00017692,-0.00014276,-0.00002155,0.00003922,-0.00000950,0
 .00001335,0.00023162,-0.00012933,-0.00004817,-0.00015226,0.00007104,0.
 00000292,0.00003613,0.00002531,0.00002170,-0.00003970,0.00004824,-0.00
 004557,-0.00005131,0.00009441,-0.00000092,-0.00000533,0.00000629,0.000
 04989,0.00005368,-0.00000317,-0.00000574,0.00002488,-0.00002854,-0.000
 01666,-0.00004441,0.00003524,0.00003979,0.00001636,-0.00000539,-0.0000
 1164,0.00002355,-0.00000589,-0.00000126,0.00000880,-0.00001406,0.00001
 501,0.00002086,-0.00000707,-0.00001508,0.00000178,0.00001158,0.0000011
 4,-0.00000549,0.00000949,0.00000452,0.00001409,-0.00001411,0.00001917,
 0.00002234,-0.00001573,-0.00000529,-0.00001398,-0.00001211,0.00000293,
 0.00001683,-0.00001078,-0.00000165,-0.00000241,0.00000411,-0.00000372,
 0.00000657,0.00001016,-0.00000162,-0.00000783,0.00000570,0.00000261,-0
 .00000298,-0.00000637,-0.00000207,0.00000890,-0.00000076,-0.00000229,0
 .00000445,0.00000680,0.00000143,0.00000841,0.00000035,0.00000342,-0.00
 000237,-0.00000570,0.00000088,-0.00000546,0.00000466,0.00001589,0.0000
 1752,-0.00002178,-0.00000541,0.00000052,0.00000444,0.00000490,0.000001
 06,0.00000517,-0.00000098,-0.00000713,0.00001248,0.00000626,0.00001486
 ,-0.00001641,-0.00000113,-0.00000102,0.00001668,-0.00000458,0.00000249
 ,0.00000543,0.00000159,-0.00000080,-0.00000222,-0.00000622,-0.00002970
 ,0.00004608,-0.00009932,-0.00007191,0.00003996,0.00008604,0.00018725,-
 0.00001729,0.00001687,-0.00002029,-0.00001461,0.00000536,0.00000447,0.
 00000432,0.00000497,0.00000615,-0.00000896,0.00003277,0.00010967,0.000
 14862,-0.00003972,0.00005226,0.00012878,-0.00009487,-0.00014880,-0.000
 06955,0.00002851,0.00010779,-0.00006319,0.00002226,-0.00003447,0.00002
 311,-0.00000545,0.00001093,-0.00001001,0.00000730,0.00000128,-0.000014
 21,0.00000166,0.00000594,0.00000817,0.00000389,-0.00000591,-0.00001897
 ,0.00001414,0.00000715,-0.00000306,-0.00000673,-0.00000286,0.00001225,
 -0.00002307,-0.00001343,0.00001494,0.00000147,0.00000824,-0.00000904,-
 0.00000100,0.00000449,0.00000523,0.00000022,-0.00000442,-0.00001847,0.
 00001156,0.00000691,-0.00000010,-0.00000534,0.00000350,0.00000937,-0.0
 0001046,-0.00000624,0.00000837,0.00000132,0.00000404,-0.00001180,-0.00
 000452,0.00000139,0.00000240,0.00001302,0.00000050,0.00000495,0.000027
 21,-0.00004438,-0.00007586,-0.00001658,0.00002766,0.00004738,-0.000008
 17,0.00000832,0.00001423,0.00000711,0.00001082,0.00001655,-0.01462436,
 -0.09666942,-0.13636458,0.01713628,-0.02639340,0.00055422,0.01528330,0
 .16930098,0.19746149,0.00035272,0.00022818,-0.00009013,-0.00006424,-0.
 00002668,-0.00002224,-0.00002532,-0.00007287,0.00014142,0.00006776,0.0
 0006876,-0.00007702,-0.00018819,-0.00013389,0.00005483,0.00033358,-0.0
 0009269,0.00029019,-0.00329536,-0.00169521,-0.00123957,0.00933802,-0.0
 0955840,0.01917050,-0.00264573,-0.00086471,-0.00006482,0.00102841,0.00
 000743,0.00095773,-0.00000981,-0.00000220,0.00000646,-0.00000829,-0.00
 000247,-0.00000239,0.00004900,0.00003440,0.00001826,-0.00005327,-0.000
 04741,0.00032510,0.00012916,-0.00096369,0.00203618,-0.00000147,0.00005
 117,-0.00008078,-0.00003139,-0.00013274,0.00020872,-0.00017778,-0.0008
 8780,0.00165767,0.00028541,-0.00007878,-0.00019440,0.00045700,0.000004
 87,-0.00020880,0.00040407,0.00020595,0.00003981,0.00013202,-0.00012906
 ,-0.00008357,-0.00058571,-0.00035990,-0.00033337,-0.00096599,0.0000276
 2,0.00035231,-0.00014057,0.00029400,0.00009292,0.00005119,-0.00015328,
 -0.00004175,0.00089116,0.00007740,-0.00047679,-0.00049702,-0.00011745,
 0.00012618,-0.00008149,-0.00006670,0.00021157,-0.00003641,0.00003221,-
 0.00000642,-0.00003663,0.00007507,0.00002586,-0.00009230,-0.00002216,-
 0.00006620,-0.00016664,-0.00004074,-0.00004309,0.00023949,0.00009982,0
 .00021697,0.00002234,0.00001738,-0.00002792,-0.00000557,0.00002846,-0.
 00001384,-0.00000197,-0.00000203,0.00003480,0.00003252,-0.00001732,0.0
 0000122,0.00001403,0.00003695,-0.00006829,-0.00003078,-0.00001187,0.00
 002426,-0.00000725,0.00003174,-0.00002626,0.00003363,-0.00002561,-0.00
 000359,0.00018128,-0.00030428,0.00030043,-0.00005724,0.00004778,-0.000
 04890,-0.00008637,0.00026893,-0.00018616,0.00000217,0.00006838,-0.0000
 3604,0.00007192,-0.00029924,0.00025822,0.00002004,0.00016396,-0.000231
 57,-0.00001315,0.00006657,-0.00001988,-0.00001017,0.00005048,-0.000075
 98,0.00000294,-0.00000486,0.00005164,0.00002434,-0.00000850,-0.0000186
 9,-0.00000505,0.00001238,-0.00000695,0.00000641,0.00001163,0.00000563,
 -0.00001339,-0.00000055,0.00001431,0.00000969,0.00003773,-0.00000266,0
 .00000513,-0.00002835,0.00001371,0.00001797,-0.00000170,-0.00001525,0.
 00002194,0.00001011,0.00000500,-0.00000129,-0.00000937,-0.00000367,0.0
 0000948,0.00000409,0.00001587,-0.00000332,0.00000420,-0.00000690,0.000
 02199,0.00000488,0.00000538,-0.00001634,-0.00000226,0.00000672,0.00000
 081,0.00000640,-0.00001332,0.00001832,-0.00000308,0.00001392,-0.000001
 83,-0.00001623,0.00000331,0.00000079,0.00000276,0.00000042,-0.00000331
 ,0.00000324,0.00000275,0.00000574,-0.00001124,-0.00000098,-0.00000700,
 -0.00000513,-0.00000953,0.00000067,-0.00000900,-0.00000418,0.00001535,
 0.00000346,0.00000901,-0.00000161,0.00000335,0.00000250,0.00000049,-0.
 00000271,0.00001131,0.00001940,0.00000591,-0.00002126,0.00000190,-0.00
 001024,0.00000097,-0.00001593,0.00001209,0.00001278,-0.00000079,-0.000
 00027,0.00000716,-0.00001212,0.,-0.00001363,0.00000749,-0.00000094,-0.
 00000514,0.00001247,-0.00001515,0.00001138,-0.00002320,-0.00005740,0.0
 0016263,-0.00006842,0.00004325,-0.00026001,-0.00004470,0.00001627,0.00
 025776,-0.00000353,-0.00001784,0.00001420,-0.00000346,0.00001006,0.000
 00908,-0.00000313,-0.00000581,-0.00000939,0.00005973,0.00003577,0.0000
 3423,-0.00003264,0.00005478,0.00002566,-0.00001845,-0.00005520,-0.0000
 5669,0.00009006,0.00000293,0.00012567,-0.00000199,-0.00000401,-0.00006
 893,-0.00000311,-0.00000691,0.00000143,-0.00000589,-0.00000212,0.00000
 259,0.00000643,0.00001690,0.00001581,0.00001179,-0.00000622,-0.0000234
 3,-0.00000537,-0.00000283,0.00000486,0.00000444,0.00000821,0.00001398,
 0.00000897,0.00000012,-0.00000378,-0.00000076,-0.00000985,-0.00000853,
 -0.00000824,0.00000679,0.00001350,0.00001208,-0.00000637,-0.00001711,-
 0.00000646,-0.00000259,0.00000567,0.00000122,0.00001168,0.00001320,0.0
 0000515,0.00000124,0.00000013,-0.00000137,-0.00000786,-0.00000431,-0.0
 0000477,0.00000354,0.00001098,-0.00000085,0.00000080,-0.00000555,0.000
 16317,0.00019080,-0.00019367,-0.00005491,-0.00002017,0.00009170,-0.000
 00927,-0.00009513,0.00007631,-0.00006458,-0.00004731,0.00001935,-0.084
 83729,0.00663213,-0.02712959,-0.02924202,0.03312663,-0.05059667,0.0093
 4733,-0.00369851,-0.01754598,0.09979194,0.00031775,0.00043217,-0.00021
 297,-0.00012742,-0.00003190,-0.00008321,-0.00005490,-0.00013316,0.0002
 5120,0.00010008,0.00012965,-0.00016102,-0.00030716,-0.00024417,0.00016
 077,0.00054131,-0.00008548,0.00017672,-0.00561995,-0.00101665,-0.00045
 088,0.00272861,-0.00511402,0.03364751,0.00084740,-0.00045514,0.0011558
 1,0.00011807,-0.00025817,0.00032280,0.00000533,-0.00000117,0.00000977,
 -0.00001438,-0.00001428,-0.00000044,0.00004947,0.00001777,0.00000094,0
 .00000660,0.00011974,-0.00021644,-0.00097787,-0.00091009,0.00038586,-0
 .00011097,-0.00003917,-0.00001194,-0.00009760,-0.00012732,0.00013051,0
 .00016242,-0.00194500,0.00158054,-0.00000265,-0.00000259,-0.00031767,0
 .00030248,-0.00015048,0.00016402,0.00029239,0.00027514,0.00024977,0.00
 001290,-0.00026357,-0.00005859,-0.00039713,-0.00049777,-0.00054417,-0.
 00027495,0.00027537,-0.00038721,0.00000826,0.00043160,0.00003595,-0.00
 002083,-0.00029826,-0.00000736,0.00034935,-0.00026392,0.00024051,-0.00
 030567,0.00000752,-0.00003714,-0.00010154,0.00006586,0.00001613,0.0000
 3396,0.00015114,0.00002801,-0.00003527,0.00012903,0.00003888,-0.000094
 87,-0.00010358,-0.00020492,-0.00019026,-0.00004769,-0.00008382,0.00020
 746,0.00013042,0.00038765,-0.00000098,-0.00003182,0.00001444,0.0000051
 6,-0.00001270,0.00001987,-0.00000544,0.00000965,-0.00000489,0.00001228
 ,0.00000385,-0.00001041,0.00000982,-0.00001357,0.00000820,-0.00000217,
 0.00002137,0.00000453,-0.00000535,-0.00001346,0.00001547,0.00001138,-0
 .00000135,-0.00001443,-0.00001509,0.00018648,-0.00012717,0.00000147,-0
 .00003685,0.00002327,-0.00001650,-0.00017206,0.00007036,0.00005986,-0.
 00003291,0.00003695,0.00002706,0.00012951,-0.00012458,-0.00006039,-0.0
 0007046,0.00010573,-0.00001049,-0.00000241,0.00001663,0.00005644,-0.00
 004834,0.00003621,-0.00000881,0.00001432,0.00006724,0.00000541,-0.0000
 1411,-0.00001369,0.00000837,-0.00000145,-0.00002003,0.00001386,0.00002
 019,0.00002090,0.00001260,-0.00000595,0.00002696,0.00000681,-0.0000030
 4,-0.00001977,-0.00001349,0.00001369,-0.00001331,0.00000934,0.00000635
 ,0.00002279,0.00001859,0.00000560,0.00001225,-0.00001172,0.00000216,-0
 .00000254,0.00001667,0.00000609,0.00001661,-0.00000713,-0.00000305,-0.
 00000107,0.00002523,0.00000965,0.00000092,-0.00001892,-0.00000364,-0.0
 0002054,-0.00000987,0.00000206,-0.00000755,0.00002521,0.00000243,0.000
 01403,0.00001021,-0.00000904,-0.00000167,-0.00000414,0.00000437,0.0000
 0768,-0.00000666,0.00000648,-0.00000131,0.00000761,-0.00002011,-0.0000
 0773,-0.00001395,-0.00000516,-0.00000503,0.00000373,-0.00001645,-0.000
 01034,0.00001084,0.00000909,0.00000744,-0.00000298,0.00000141,0.000011
 89,-0.00001537,-0.00000165,-0.00000067,0.00001897,0.00001192,-0.000017
 82,-0.00000693,-0.00003120,-0.00000059,-0.00000092,0.00002192,0.000025
 37,0.00000623,-0.00001134,-0.00000425,0.00000090,0.00001438,0.00000335
 ,-0.00000696,-0.00002085,-0.00000131,0.00000802,0.00000564,0.00000248,
 -0.00001426,-0.00008218,0.00023687,0.00012212,-0.00003871,-0.00005406,
 -0.00014415,0.00017797,0.00013301,-0.00001359,-0.00003336,0.00001636,-
 0.00000651,0.00001150,0.00001621,-0.00001716,0.00000769,-0.00002743,0.
 00012686,0.00011022,0.00000315,-0.00005697,0.00006310,0.00005056,0.000
 02136,-0.00011676,-0.00005494,-0.00009700,0.00006162,0.00007843,-0.000
 00985,-0.00002573,-0.00007640,0.00000868,0.00000617,-0.00001204,-0.000
 02219,-0.00000394,0.00001013,0.00001873,0.00001270,0.00000623,0.000029
 55,-0.00002464,-0.00003159,-0.00001194,0.00000388,-0.00000042,0.000010
 52,0.00000640,0.00002684,-0.00000757,-0.00002046,0.00000944,0.00001725
 ,-0.00001691,-0.00000321,-0.00001193,0.00001635,0.00001002,0.00001988,
 0.00000224,0.00000088,0.00000026,0.00000702,-0.00000551,-0.00000212,-0
 .00000247,0.00001197,-0.00002309,-0.00002063,0.00000117,0.00001723,0.0
 0000793,0.00000061,0.00000061,0.00000778,0.00000462,-0.00001590,0.0000
 0844,-0.00001090,0.00039370,0.00026792,-0.00034283,-0.00011934,-0.0000
 1329,0.00017633,-0.00005158,-0.00012623,0.00012033,-0.00015899,-0.0000
 8383,0.00002077,0.00420257,-0.10869264,0.07656092,0.02677969,-0.006850
 34,0.02610876,-0.00649637,0.01296930,-0.04106380,-0.02198671,0.1123163
 8,-0.00029943,-0.00049141,0.00039430,0.00017302,0.00006297,0.00012307,
 0.00004967,0.00017584,-0.00031789,-0.00011245,-0.00017524,0.00024028,0
 .00038670,0.00035329,-0.00025009,-0.00031708,-0.00008697,0.00021067,0.
 00600426,0.00339068,0.00084423,-0.00613470,0.01647860,-0.03275643,-0.0
 0469785,-0.00095169,-0.00258701,0.00105886,0.00067235,0.00022004,-0.00
 001304,-0.00000960,-0.00001425,0.00002179,0.00001564,-0.00000613,-0.00
 002881,-0.00001593,0.00000788,0.00021430,-0.00053091,0.00054825,0.0023
 1601,0.00026318,0.00107183,0.00022669,0.00012664,-0.00008600,0.0001230
 8,0.00004820,-0.00009560,-0.00034517,0.00118260,-0.00223807,0.00012024
 ,0.00001069,0.00059266,-0.00037184,0.00026140,-0.00018849,-0.00015411,
 -0.00002728,-0.00037574,-0.00000501,0.00048087,0.00026022,0.00015110,0
 .00014597,0.00046857,0.00020384,-0.00045822,0.00052668,0.00002378,-0.0
 0076035,-0.00021103,0.00002931,0.00049795,0.00007842,-0.00033659,0.000
 52285,-0.00026729,0.00031445,-0.00018737,-0.00010029,0.00014338,-0.000
 10523,-0.00000159,-0.00009224,-0.00025169,-0.00007619,0.00005816,-0.00
 019612,-0.00009713,0.00013404,0.00009235,0.00025214,0.00017664,0.00000
 524,0.00012637,-0.00017400,-0.00004004,-0.00046766,0.00000413,0.000037
 05,-0.00003152,-0.00000438,0.00002817,-0.00003073,0.00001511,0.0000004
 9,0.00003054,-0.00001694,-0.00001053,0.00001696,-0.00000356,0.00004100
 ,-0.00003663,0.00000773,-0.00002773,-0.00000525,0.00000535,0.00003078,
 -0.00001899,-0.00002747,0.00000520,0.00002059,0.00004891,-0.00024253,0
 .00031391,0.00001076,0.00002528,0.00002791,0.00002313,0.00019022,-0.00
 024618,-0.00009714,0.00008697,-0.00006864,-0.00001400,-0.00013700,0.00
 020872,0.00005825,0.00003917,-0.00020655,0.00001293,0.00008099,-0.0000
 2799,-0.00006863,0.00006182,-0.00004114,-0.00002255,-0.00005697,0.0000
 0161,-0.00000123,0.00001176,0.00001780,0.00002553,0.00004354,0.0000180
 5,-0.00002126,-0.00000508,-0.00004638,-0.00003415,-0.00002704,-0.00000
 105,0.00002363,0.00002806,0.00001998,0.00001041,-0.00000787,0.00001777
 ,-0.00000721,-0.00000319,-0.00004608,-0.00000790,0.00000994,-0.0000207
 8,0.00000257,-0.00000381,0.00001203,-0.00001904,-0.00001203,-0.0000104
 9,0.00001265,0.00001756,-0.00001157,-0.00001324,0.00000744,-0.00001204
 ,0.00001700,-0.00000744,0.00002110,0.00001677,0.00001253,-0.00000297,-
 0.00003091,-0.00000673,-0.00001185,-0.00002063,0.00001317,0.00001677,0
 .00000489,-0.00001247,-0.00000276,0.00001025,-0.00001124,-0.00000371,-
 0.00001103,0.00003540,0.00000919,0.00001843,0.00000928,0.00001418,-0.0
 0000465,0.00003091,0.00001322,-0.00000762,-0.00001432,-0.00001618,0.00
 000472,-0.00000725,-0.00000936,0.00004681,0.00002423,-0.00002945,-0.00
 002917,-0.00001541,0.00002748,0.00001553,0.00004328,0.00000694,-0.0000
 0538,-0.00003523,-0.00001727,-0.00000395,0.00003467,-0.00001602,-0.000
 00794,-0.00002211,0.00001111,0.00000750,0.00003166,0.00000615,-0.00000
 558,-0.00001459,-0.00000044,-0.00000437,0.00009316,-0.00028347,-0.0002
 4250,-0.00000404,0.00009163,0.00025045,-0.00007259,-0.00017590,0.00002
 969,0.00002566,-0.00003260,0.00001221,-0.00001063,-0.00001569,0.000025
 23,-0.00000464,0.00002791,-0.00011309,-0.00004189,0.00011392,0.0000288
 4,-0.00002281,0.00003162,-0.00009360,0.00002704,0.00001527,0.00015220,
 -0.00000170,-0.00012960,0.00002462,0.00000136,0.00010560,-0.00001651,0
 .00000241,0.00000911,0.00003426,0.00000456,-0.00002232,-0.00002111,-0.
 00000785,0.00000076,-0.00003311,0.00002494,0.00002338,0.00002720,0.000
 00206,-0.00000248,-0.00001971,-0.00000864,-0.00002328,-0.00001271,0.00
 001388,0.00000055,-0.00001902,0.00002748,-0.00000438,0.00001406,-0.000
 01656,-0.00000586,-0.00002305,-0.00000983,-0.00002194,0.00001024,-0.00
 000138,0.00000675,-0.00000351,0.00000831,-0.00000447,0.00001697,0.0000
 1900,0.00000712,-0.00001969,-0.00000655,-0.00001287,-0.00000542,-0.000
 00779,-0.00000211,0.00003375,-0.00001052,0.00001830,-0.00049513,-0.000
 39955,0.00036873,0.00014204,0.00004475,-0.00018656,0.00006258,0.000170
 74,-0.00014174,0.00021912,0.00012217,-0.00000698,-0.02101981,0.0791993
 9,-0.27163146,-0.03500393,0.02128942,-0.01065950,-0.01487306,-0.022961
 66,-0.06955631,0.07217144,-0.09828696,0.38641010\\0.00000130,0.0000016
 9,0.00000189,-0.00000577,-0.00000067,-0.00000730,0.00000652,0.00000208
 ,0.00000167,-0.00000238,0.00000035,-0.00000299,0.00000213,0.00000425,-
 0.00000192,-0.00000139,0.00000254,-0.00000278,0.00000514,0.00000456,-0
 .00000071,-0.00000264,0.00000595,-0.00000398,-0.00000074,0.00000130,0.
 00000554,0.00000457,0.00000637,-0.00000046,0.00000080,-0.00000085,0.00
 000251,0.00000103,0.00000083,0.00000029,-0.00000063,0.00000035,-0.0000
 0049,-0.00000107,0.00000030,0.00000052,-0.00000015,0.00000194,0.000000
 13,-0.00000182,0.00000081,0.00000023,-0.00000140,-0.00000179,0.0000003
 6,-0.00000246,-0.00000223,0.00000705,0.,0.00000220,-0.00000228,-0.0000
 0064,-0.00000008,-0.00000084,-0.00000209,0.00000092,0.00000155,0.00000
 211,0.00000023,-0.00000321,0.00000278,-0.00000357,0.00000555,0.0000002
 6,-0.00000008,0.00000369,-0.00000368,-0.00000452,0.00000217,0.00000198
 ,0.00000147,-0.00000644,0.00000201,0.00000202,-0.00000069,0.00000105,-
 0.00000239,-0.00000795,-0.00000101,0.00000209,0.00000360,-0.00000591,0
 .00000058,-0.00000261,0.00000128,0.00000533,-0.00000635,0.00000029,-0.
 00000746,0.00000616,-0.00000482,0.00000081,-0.00000470,-0.00000035,-0.
 00000232,-0.00000117,-0.00000286,-0.00000460,-0.00000319,0.00000054,0.
 00000084,-0.00000151,-0.00000052,0.00000150,0.00000025,0.00000077,0.00
 000015,0.00000024,0.00000359,0.00000215,-0.00000155,-0.00000136,0.0000
 0009,-0.00000159,-0.00000029,-0.00000019,-0.00000158,-0.00000043,0.000
 00013,-0.00000134,0.00000149,-0.00000060,0.00000304,-0.00000052,0.0000
 0039,0.00000210,0.00000094,0.00000095,0.00000027,-0.00000102,0.0000003
 2,-0.00000012,-0.00000162,-0.00000196,0.00000605,-0.00000119,0.0000073
 2,-0.00000425,0.00000112,0.00000287,0.00000009,0.00000080,0.00000064,-
 0.00000073,0.00000519,-0.00000236,0.00000277,-0.00000428,-0.00000095,0
 .00000187,-0.00000079,-0.00000090,0.00000139,-0.00000055,-0.00000247,0
 .00000111,0.00000316,-0.00000461,-0.00000370,0.00000016,-0.00000123,0.
 00000182,-0.00000230,0.00000307,0.00000158,0.00000014,-0.00000113,0.00
 000321,-0.00000293,-0.00000328,-0.00000051,0.00000128,-0.00000345,0.00
 000115,0.00000140,-0.00000183,0.00000175,-0.00000009,-0.00000333,0.000
 00189,0.00000446,-0.00000115,0.00000804,0.00000148,-0.00000377,-0.0000
 0484,-0.00000028,-0.00000220,0.00000021,-0.00000293,-0.00000304,-0.000
 00177,0.00000096,-0.00000033,-0.00000458,0.00000022,-0.00000074,-0.000
 00166,-0.00000082,-0.00000033,-0.00000147,-0.00000008,-0.00000027,-0.0
 0000175,0.00000281,-0.00000110,-0.00000309,-0.00000081,0.00000009,-0.0
 0000246,-0.00000235,0.00000111,-0.00000319,-0.00000005,-0.00000075,-0.
 00000233,0.00000209,-0.00000088,-0.00000072,0.00000071,0.00000002,-0.0
 0000135,0.00000036,0.00000305,-0.00000124,0.,0.00000251,-0.00000310,0.
 00000397,0.00000112,-0.00000669,-0.00000093,0.00000067,-0.00000098,0.0
 0000050,0.00000288,-0.00000183,-0.00000143,0.00000032,-0.00000165,-0.0
 0000087,-0.00000047,0.00000118,0.00000325,0.00000253,-0.00000769,-0.00
 000192,-0.00000233,0.00000823,-0.00000021,-0.00000483,-0.00000069,-0.0
 0000102,0.00000168,0.00000358,0.00000045,-0.00000166,-0.00000034,0.000
 00156,0.00000080,0.00000059,-0.00000048,-0.00000150,0.00000092,-0.0000
 0070,-0.00000013,0.00000057,0.00000163,-0.00000271,0.00000741,0.000004
 23,-0.00000500,-0.00000041,0.00000079,-0.00000031,0.00000058,-0.000003
 29,-0.00000115,0.00000177,-0.00000219,-0.00000152,-0.00000119,-0.00000
 343,0.00000091,0.00000559,-0.00000055,0.00000034,-0.00000051,0.0000019
 5,-0.00000296,-0.00000373,0.00000286,0.00000407,0.00000441,-0.00000213
 ,-0.00000171,0.00000190,0.00000047,-0.00000240,-0.00000085,-0.00000055
 ,-0.00000034,0.00000612,0.00000043,0.00000020,0.00000007,0.00000034,-0
 .00000091,-0.00000154,0.00000216,0.00000445,0.00000169,-0.00000183,-0.
 00000150,0.00000325,-0.00000015,-0.00000017,0.00000253,-0.00000115,0.0
 0000056,0.00000084,0.00000136,-0.00000461,-0.00000733,-0.00000299,0.00
 000006,0.00000089,0.00000119,-0.00000325,-0.00000269,-0.00000048,0.000
 00125,-0.00000224,-0.00000016,0.00000237,0.00001031,-0.00000169,0.0000
 0476,0.00000110,0.00000110,0.00000168,0.00000339,0.00000002,0.00000604
 ,0.00000225\\\@
 The archive entry for this job was punched.


 Experience is what you get when you don't get what you want.
 -- Dan Stanford
 Job cpu time:       2 days  6 hours 46 minutes  9.3 seconds.
 Elapsed time:       0 days  3 hours 29 minutes 23.7 seconds.
 File lengths (MBytes):  RWF=  11754 Int=      0 D2E=      0 Chk=     62 Scr=      1
 Normal termination of Gaussian 16 at Sat Dec  7 22:17:01 2024.
