/mnt/lustre/scratch/nvme/SLURM/9663797/usccqdma.3EUekXYD0z
OMP_STACKSIZE=0m
GAUSS_PDEF=16
GAUSS_MDEF=65536MB
GAUSS_RDEF=SCF=Direct
 Entering Gaussian System, Link 0=g16.exe
 Initial command:
 /opt/cesga/2020/software/Core/g16/c1/l1.exe "/mnt/lustre/scratch/nvme/SLURM/9663797/usccqdma.3EUekXYD0z/Gau-284271.inp" -scrdir="/mnt/lustre/scratch/nvme/SLURM/9663797/usccqdma.3EUekXYD0z/"
 Default is to use a total of  16 processors:
                               16 via shared-memory
                                1 via Linda
 Entering Link 1 = /opt/cesga/2020/software/Core/g16/c1/l1.exe PID=    284297.
  
 Copyright (c) 1988-2019, Gaussian, Inc.  All Rights Reserved.
  
 This is part of the Gaussian(R) 16 program.  It is based on
 the Gaussian(R) 09 system (copyright 2009, Gaussian, Inc.),
 the Gaussian(R) 03 system (copyright 2003, Gaussian, Inc.),
 the Gaussian(R) 98 system (copyright 1998, Gaussian, Inc.),
 the Gaussian(R) 94 system (copyright 1995, Gaussian, Inc.),
 the Gaussian 92(TM) system (copyright 1992, Gaussian, Inc.),
 the Gaussian 90(TM) system (copyright 1990, Gaussian, Inc.),
 the Gaussian 88(TM) system (copyright 1988, Gaussian, Inc.),
 the Gaussian 86(TM) system (copyright 1986, Carnegie Mellon
 University), and the Gaussian 82(TM) system (copyright 1983,
 Carnegie Mellon University). Gaussian is a federally registered
 trademark of Gaussian, Inc.
  
 This software contains proprietary and confidential information,
 including trade secrets, belonging to Gaussian, Inc.
  
 This software is provided under written license and may be
 used, copied, transmitted, or stored only in accord with that
 written license.
  
 The following legend is applicable only to US Government
 contracts under FAR:
  
                    RESTRICTED RIGHTS LEGEND
  
 Use, reproduction and disclosure by the US Government is
 subject to restrictions as set forth in subparagraphs (a)
 and (c) of the Commercial Computer Software - Restricted
 Rights clause in FAR 52.227-19.
  
 Gaussian, Inc.
 340 Quinnipiac St., Bldg. 40, Wallingford CT 06492
  
  
 ---------------------------------------------------------------
 Warning -- This program may not be used in any manner that
 competes with the business of Gaussian, Inc. or will provide
 assistance to any competitor of Gaussian, Inc.  The licensee
 of this program is prohibited from giving any competitor of
 Gaussian, Inc. access to this program.  By using this program,
 the user acknowledges that Gaussian, Inc. is engaged in the
 business of creating and licensing software in the field of
 computational chemistry and represents and warrants to the
 licensee that it is not a competitor of Gaussian, Inc. and that
 it will not use this program in any manner prohibited above.
 ---------------------------------------------------------------
  

 Cite this work as:
 Gaussian 16, Revision C.01,
 M. J. Frisch, G. W. Trucks, H. B. Schlegel, G. E. Scuseria, 
 M. A. Robb, J. R. Cheeseman, G. Scalmani, V. Barone, 
 G. A. Petersson, H. Nakatsuji, X. Li, M. Caricato, A. V. Marenich, 
 J. Bloino, B. G. Janesko, R. Gomperts, B. Mennucci, H. P. Hratchian, 
 J. V. Ortiz, A. F. Izmaylov, J. L. Sonnenberg, D. Williams-Young, 
 F. Ding, F. Lipparini, F. Egidi, J. Goings, B. Peng, A. Petrone, 
 T. Henderson, D. Ranasinghe, V. G. Zakrzewski, J. Gao, N. Rega, 
 G. Zheng, W. Liang, M. Hada, M. Ehara, K. Toyota, R. Fukuda, 
 J. Hasegawa, M. Ishida, T. Nakajima, Y. Honda, O. Kitao, H. Nakai, 
 T. Vreven, K. Throssell, J. A. Montgomery, Jr., J. E. Peralta, 
 F. Ogliaro, M. J. Bearpark, J. J. Heyd, E. N. Brothers, K. N. Kudin, 
 V. N. Staroverov, T. A. Keith, R. Kobayashi, J. Normand, 
 K. Raghavachari, A. P. Rendell, J. C. Burant, S. S. Iyengar, 
 J. Tomasi, M. Cossi, J. M. Millam, M. Klene, C. Adamo, R. Cammi, 
 J. W. Ochterski, R. L. Martin, K. Morokuma, O. Farkas, 
 J. B. Foresman, and D. J. Fox, Gaussian, Inc., Wallingford CT, 2019.
 
 ******************************************
 Gaussian 16:  ES64L-G16RevC.01  3-Jul-2019
                 7-Dec-2024 
 ******************************************
 Default route: SCF=Direct
 ----------------------------------------------------
 # m06/genecp scf=tight int=ultrafine 5d freq=noraman
 ----------------------------------------------------
 1/10=4,30=1,38=1/1,3;
 2/12=2,17=6,18=5,40=1/2;
 3/5=7,8=1,11=2,16=1,17=8,25=1,30=1,71=2,74=-54,75=-5,140=1/1,2,3;
 4//1;
 5/5=2,32=2,38=5,98=1/2;
 8/6=4,10=90,11=11/1;
 11/6=1,8=1,9=11,15=111,16=1/1,2,10;
 10/6=1/2;
 6/7=2,8=2,9=2,10=2,28=1/1;
 7/8=1,10=1,25=1/1,2,3,16;
 1/10=4,30=1/3;
 99//99;
 ------
 OPT-TS
 ------
 Symbolic Z-matrix:
 Charge =  0 Multiplicity = 1
 C                    -2.46797  -1.6256    0.59137 
 C                    -1.65785  -2.56463  -1.36266 
 C                    -2.47391  -3.67955  -1.22948 
 C                    -3.30293  -3.76394  -0.11707 
 C                    -3.29691  -2.72996   0.80546 
 C                    -2.40967  -0.48205   1.51952 
 C                    -1.33638   1.49133   2.11892 
 C                    -2.18082   1.67502   3.20268 
 C                    -3.18581   0.74621   3.43383 
 C                    -3.29762  -0.34144   2.58447 
 H                    -0.95047  -2.46583  -2.18324 
 H                    -3.94611  -4.6286    0.03503 
 H                    -3.92873  -2.78807   1.68785 
 H                    -0.54007   2.19365   1.87707 
 H                    -3.8797    0.86759   4.26304 
 H                    -4.08934  -1.06944   2.7382 
 N                    -1.65562  -1.56258  -0.47923 
 N                    -1.4467    0.43948   1.29468 
 Ir                   -0.2047    0.22748  -0.48263 
 O                     1.72869   0.08108   1.90156 
 O                     1.9878    2.17522  -1.30898 
 O                     1.2631   -2.0699   -1.86656 
 B                     0.99663   1.85345  -0.39269 
 B                     0.99649  -0.6988    1.02865 
 B                     1.43835  -0.93645  -1.07007 
 O                     2.79266  -0.68558  -0.89195 
 O                     0.87155  -1.99459   1.5064 
 C                     1.34125  -2.00363   2.86843 
 C                     2.30348  -0.7799    2.89644 
 C                     2.54964  -2.67297  -2.07069 
 C                     3.50744  -1.46649  -1.8594 
 C                     2.79248   3.20192  -0.71881 
 C                     1.76491   3.93149   0.18839 
 O                     0.89953   2.85181   0.57455 
 C                     2.34993  -0.03035   4.21275 
 H                     2.70034  -0.68082   5.02717 
 H                     3.0472    0.81344   4.12816 
 H                     1.36696   0.37446   4.48071 
 C                     3.71467  -1.11678   2.43609 
 H                     3.69796  -1.64666   1.47582 
 H                     4.26968  -0.18251   2.28118 
 H                     4.25423  -1.7234    3.17599 
 C                     0.11659  -1.82251   3.75595 
 H                     0.3678   -1.89802   4.82245 
 H                    -0.3639   -0.85069   3.57874 
 H                    -0.61209  -2.6088    3.51623 
 C                     1.9928   -3.33978   3.16074 
 H                     2.41547  -3.35331   4.17583 
 H                     1.24378  -4.13926   3.09427 
 H                     2.7936   -3.56842   2.44885 
 C                     3.89175   2.50474   0.07602 
 H                     3.46308   1.89017   0.87974 
 H                     4.43501   1.82866  -0.59747 
 H                     4.60585   3.221     0.50584 
 C                     3.39778   4.05492  -1.81444 
 H                     3.95052   4.9056   -1.38984 
 H                     4.10266   3.45312  -2.40296 
 H                     2.63249   4.43894  -2.4979 
 C                     2.34897   4.56705   1.43341 
 H                     2.81146   3.81721   2.08492 
 H                     3.10488   5.32098   1.16979 
 H                     1.55686   5.07009   2.00359 
 C                     0.91145   4.93942  -0.56913 
 H                     0.06918   5.2396    0.06724 
 H                     1.47972   5.84032  -0.83803 
 H                     0.49875   4.49517  -1.48447 
 C                     4.8731   -1.81677  -1.30551 
 H                     4.80667  -2.3595   -0.35599 
 H                     5.43717  -2.43424  -2.01934 
 H                     5.44286  -0.89513  -1.1268 
 C                     3.65943  -0.59576  -3.10066 
 H                     4.26059  -1.08718  -3.87768 
 H                     2.68171  -0.32932  -3.52323 
 H                     4.15567   0.34011  -2.81343 
 C                     2.59613  -3.28197  -3.4579 
 H                     3.60146  -3.66764  -3.68071 
 H                     1.89259  -4.12248  -3.52008 
 H                     2.32232  -2.55369  -4.22907 
 C                     2.70953  -3.76251  -1.01914 
 H                     2.66764  -3.3426   -0.00583 
 H                     1.87326  -4.46691  -1.11458 
 H                     3.64767  -4.3203   -1.14341 
 H                     0.42588   0.22661  -1.98203 
 C                    -4.02829   1.23983  -0.99221 
 O                    -3.98849   1.75605   0.12495 
 C                    -5.3634    0.72182  -1.53072 
 C                    -1.63459   1.63552  -1.33364 
 N                    -2.91943   1.08099  -1.76245 
 C                    -2.89804   0.41943  -3.04731 
 C                    -5.58329  -0.6968   -1.00845 
 H                    -5.35892   0.70418  -2.62997 
 C                    -6.48821   1.63669  -1.06877 
 H                    -5.57053  -0.68445   0.09194 
 H                    -4.80156  -1.39461  -1.3435 
 H                    -6.55609  -1.09167  -1.33194 
 H                    -1.19621   2.13469  -2.21091 
 H                    -1.84553   2.40707  -0.58401 
 H                    -1.90697  -0.03667  -3.17484 
 H                    -3.05579   1.12329  -3.88081 
 H                    -3.64168  -0.38156  -3.11786 
 H                    -6.4963    1.69772   0.02551 
 H                    -7.45958   1.25665  -1.41313 
 H                    -6.36165   2.65639  -1.45328 
 H                    -2.05346   2.54632   3.83961 
 H                    -2.44362  -4.46812  -1.97716 
 

 GradGradGradGradGradGradGradGradGradGradGradGradGradGradGradGradGradGrad
 Berny optimization.
 Initialization pass.
 Trust Radius=3.00D-01 FncErr=1.00D-07 GrdErr=1.00D-07 EigMax=2.50D+02 EigMin=1.00D-04
 Number of steps in this run=      2 maximum allowed number of steps=      2.
 GradGradGradGradGradGradGradGradGradGradGradGradGradGradGradGradGradGrad

 Stoichiometry    C34H57B3IrN3O7
 Framework group  C1[X(C34H57B3IrN3O7)]
 Deg. of freedom   309
 Full point group                 C1      NOp   1
 Largest Abelian subgroup         C1      NOp   1
 Largest concise Abelian subgroup C1      NOp   1
                         Standard orientation:                         
 ---------------------------------------------------------------------
 Center     Atomic      Atomic             Coordinates (Angstroms)
 Number     Number       Type             X           Y           Z
 ---------------------------------------------------------------------
      1          6           0       -2.467971   -1.625600    0.591370
      2          6           0       -1.657851   -2.564630   -1.362660
      3          6           0       -2.473912   -3.679550   -1.229480
      4          6           0       -3.302932   -3.763940   -0.117070
      5          6           0       -3.296911   -2.729960    0.805460
      6          6           0       -2.409671   -0.482050    1.519520
      7          6           0       -1.336381    1.491330    2.118920
      8          6           0       -2.180821    1.675020    3.202680
      9          6           0       -3.185811    0.746210    3.433830
     10          6           0       -3.297621   -0.341440    2.584470
     11          1           0       -0.950471   -2.465830   -2.183240
     12          1           0       -3.946112   -4.628600    0.035030
     13          1           0       -3.928731   -2.788070    1.687850
     14          1           0       -0.540071    2.193650    1.877070
     15          1           0       -3.879701    0.867590    4.263040
     16          1           0       -4.089341   -1.069439    2.738200
     17          7           0       -1.655621   -1.562580   -0.479230
     18          7           0       -1.446701    0.439480    1.294680
     19         77           0       -0.204701    0.227480   -0.482630
     20          8           0        1.728689    0.081080    1.901560
     21          8           0        1.987799    2.175220   -1.308980
     22          8           0        1.263099   -2.069900   -1.866560
     23          5           0        0.996629    1.853450   -0.392690
     24          5           0        0.996489   -0.698800    1.028650
     25          5           0        1.438349   -0.936450   -1.070070
     26          8           0        2.792659   -0.685581   -0.891950
     27          8           0        0.871549   -1.994590    1.506400
     28          6           0        1.341249   -2.003630    2.868430
     29          6           0        2.303479   -0.779900    2.896440
     30          6           0        2.549639   -2.672970   -2.070690
     31          6           0        3.507439   -1.466491   -1.859400
     32          6           0        2.792479    3.201919   -0.718810
     33          6           0        1.764910    3.931490    0.188390
     34          8           0        0.899529    2.851810    0.574550
     35          6           0        2.349929   -0.030350    4.212750
     36          1           0        2.700339   -0.680820    5.027170
     37          1           0        3.047199    0.813439    4.128160
     38          1           0        1.366959    0.374460    4.480710
     39          6           0        3.714669   -1.116781    2.436090
     40          1           0        3.697959   -1.646661    1.475820
     41          1           0        4.269679   -0.182511    2.281180
     42          1           0        4.254229   -1.723401    3.175990
     43          6           0        0.116589   -1.822510    3.755950
     44          1           0        0.367799   -1.898020    4.822450
     45          1           0       -0.363901   -0.850690    3.578740
     46          1           0       -0.612091   -2.608800    3.516230
     47          6           0        1.992798   -3.339780    3.160740
     48          1           0        2.415468   -3.353310    4.175830
     49          1           0        1.243778   -4.139260    3.094270
     50          1           0        2.793598   -3.568421    2.448850
     51          6           0        3.891749    2.504739    0.076020
     52          1           0        3.463079    1.890169    0.879740
     53          1           0        4.435009    1.828659   -0.597470
     54          1           0        4.605849    3.220999    0.505840
     55          6           0        3.397780    4.054919   -1.814440
     56          1           0        3.950520    4.905599   -1.389840
     57          1           0        4.102660    3.453119   -2.402960
     58          1           0        2.632490    4.438940   -2.497900
     59          6           0        2.348970    4.567050    1.433410
     60          1           0        2.811460    3.817209    2.084920
     61          1           0        3.104880    5.320979    1.169790
     62          1           0        1.556860    5.070090    2.003590
     63          6           0        0.911450    4.939420   -0.569130
     64          1           0        0.069180    5.239600    0.067240
     65          1           0        1.479720    5.840320   -0.838030
     66          1           0        0.498750    4.495170   -1.484470
     67          6           0        4.873099   -1.816771   -1.305510
     68          1           0        4.806669   -2.359501   -0.355990
     69          1           0        5.437169   -2.434241   -2.019340
     70          1           0        5.442859   -0.895131   -1.126800
     71          6           0        3.659429   -0.595761   -3.100660
     72          1           0        4.260589   -1.087181   -3.877680
     73          1           0        2.681709   -0.329320   -3.523230
     74          1           0        4.155669    0.340109   -2.813430
     75          6           0        2.596129   -3.281970   -3.457900
     76          1           0        3.601458   -3.667641   -3.680710
     77          1           0        1.892588   -4.122480   -3.520080
     78          1           0        2.322319   -2.553690   -4.229070
     79          6           0        2.709528   -3.762511   -1.019140
     80          1           0        2.667638   -3.342600   -0.005830
     81          1           0        1.873258   -4.466910   -1.114580
     82          1           0        3.647668   -4.320301   -1.143410
     83          1           0        0.425879    0.226610   -1.982030
     84          6           0       -4.028291    1.239831   -0.992210
     85          8           0       -3.988491    1.756051    0.124950
     86          6           0       -5.363401    0.721821   -1.530720
     87          6           0       -1.634591    1.635520   -1.333640
     88          7           0       -2.919431    1.080990   -1.762450
     89          6           0       -2.898041    0.419430   -3.047310
     90          6           0       -5.583291   -0.696799   -1.008450
     91          1           0       -5.358921    0.704181   -2.629970
     92          6           0       -6.488211    1.636691   -1.068770
     93          1           0       -5.570531   -0.684449    0.091940
     94          1           0       -4.801561   -1.394609   -1.343500
     95          1           0       -6.556091   -1.091669   -1.331940
     96          1           0       -1.196211    2.134690   -2.210910
     97          1           0       -1.845531    2.407070   -0.584010
     98          1           0       -1.906971   -0.036670   -3.174840
     99          1           0       -3.055791    1.123290   -3.880810
    100          1           0       -3.641681   -0.381560   -3.117860
    101          1           0       -6.496301    1.697721    0.025510
    102          1           0       -7.459581    1.256651   -1.413130
    103          1           0       -6.361651    2.656391   -1.453280
    104          1           0       -2.053461    2.546320    3.839610
    105          1           0       -2.443622   -4.468120   -1.977160
 ---------------------------------------------------------------------
 Rotational constants (GHZ):           0.0820897           0.0609620           0.0551260
 General basis read from cards:  (5D, 7F)
 ======================================================================================================
                                       Pseudopotential Parameters
 ======================================================================================================
  Center     Atomic      Valence      Angular      Power
  Number     Number     Electrons     Momentum     of R      Exponent        Coefficient   SO-Coeffient
 ======================================================================================================
    1          6
                                   No pseudopotential on this center.
    2          6
                                   No pseudopotential on this center.
    3          6
                                   No pseudopotential on this center.
    4          6
                                   No pseudopotential on this center.
    5          6
                                   No pseudopotential on this center.
    6          6
                                   No pseudopotential on this center.
    7          6
                                   No pseudopotential on this center.
    8          6
                                   No pseudopotential on this center.
    9          6
                                   No pseudopotential on this center.
   10          6
                                   No pseudopotential on this center.
   11          1
                                   No pseudopotential on this center.
   12          1
                                   No pseudopotential on this center.
   13          1
                                   No pseudopotential on this center.
   14          1
                                   No pseudopotential on this center.
   15          1
                                   No pseudopotential on this center.
   16          1
                                   No pseudopotential on this center.
   17          7
                                   No pseudopotential on this center.
   18          7
                                   No pseudopotential on this center.
   19         77           17
                                      G and up 
                                                     1      823.5880147       -0.15780140    0.00000000
                                                     2      364.6613336    -1517.52704460    0.00000000
                                                     2       55.7082801     -316.53065290    0.00000000
                                                     2       12.0464544      -91.88809410    0.00000000
                                                     2        3.5120610       -9.22417730    0.00000000
                                      S - G
                                                     0      188.0490770        3.15780140    0.00000000
                                                     1      340.4194712       26.83225770    0.00000000
                                                     2      128.2373673      800.42500070    0.00000000
                                                     2       33.8644961      369.40506830    0.00000000
                                                     2        4.7560005      242.41718990    0.00000000
                                                     2        3.9649974     -118.21732820    0.00000000
                                      P - G
                                                     0      289.7291139        2.15780140    0.00000000
                                                     1       87.4633789       61.96786100    0.00000000
                                                     2       30.4363766      269.05819860    0.00000000
                                                     2        4.0553412      231.16547930    0.00000000
                                                     2        3.5525341     -133.69526670    0.00000000
                                      D - G
                                                     0      136.4017106        3.15780140    0.00000000
                                                     1       95.0776925       45.93498030    0.00000000
                                                     2       49.2258410      359.03446680    0.00000000
                                                     2       15.0874145      176.47401190    0.00000000
                                                     2        4.0405764       54.51552860    0.00000000
                                      F - G
                                                     0      127.3507908        3.95461970    0.00000000
                                                     1       66.2364374       52.97736550    0.00000000
                                                     2       34.4299229      274.86433830    0.00000000
                                                     2       10.1995721      137.20473380    0.00000000
                                                     2        2.5409702       14.86333050    0.00000000
   20          8
                                   No pseudopotential on this center.
   21          8
                                   No pseudopotential on this center.
   22          8
                                   No pseudopotential on this center.
   23          5
                                   No pseudopotential on this center.
   24          5
                                   No pseudopotential on this center.
   25          5
                                   No pseudopotential on this center.
   26          8
                                   No pseudopotential on this center.
   27          8
                                   No pseudopotential on this center.
   28          6
                                   No pseudopotential on this center.
   29          6
                                   No pseudopotential on this center.
   30          6
                                   No pseudopotential on this center.
   31          6
                                   No pseudopotential on this center.
   32          6
                                   No pseudopotential on this center.
   33          6
                                   No pseudopotential on this center.
   34          8
                                   No pseudopotential on this center.
   35          6
                                   No pseudopotential on this center.
   36          1
                                   No pseudopotential on this center.
   37          1
                                   No pseudopotential on this center.
   38          1
                                   No pseudopotential on this center.
   39          6
                                   No pseudopotential on this center.
   40          1
                                   No pseudopotential on this center.
   41          1
                                   No pseudopotential on this center.
   42          1
                                   No pseudopotential on this center.
   43          6
                                   No pseudopotential on this center.
   44          1
                                   No pseudopotential on this center.
   45          1
                                   No pseudopotential on this center.
   46          1
                                   No pseudopotential on this center.
   47          6
                                   No pseudopotential on this center.
   48          1
                                   No pseudopotential on this center.
   49          1
                                   No pseudopotential on this center.
   50          1
                                   No pseudopotential on this center.
   51          6
                                   No pseudopotential on this center.
   52          1
                                   No pseudopotential on this center.
   53          1
                                   No pseudopotential on this center.
   54          1
                                   No pseudopotential on this center.
   55          6
                                   No pseudopotential on this center.
   56          1
                                   No pseudopotential on this center.
   57          1
                                   No pseudopotential on this center.
   58          1
                                   No pseudopotential on this center.
   59          6
                                   No pseudopotential on this center.
   60          1
                                   No pseudopotential on this center.
   61          1
                                   No pseudopotential on this center.
   62          1
                                   No pseudopotential on this center.
   63          6
                                   No pseudopotential on this center.
   64          1
                                   No pseudopotential on this center.
   65          1
                                   No pseudopotential on this center.
   66          1
                                   No pseudopotential on this center.
   67          6
                                   No pseudopotential on this center.
   68          1
                                   No pseudopotential on this center.
   69          1
                                   No pseudopotential on this center.
   70          1
                                   No pseudopotential on this center.
   71          6
                                   No pseudopotential on this center.
   72          1
                                   No pseudopotential on this center.
   73          1
                                   No pseudopotential on this center.
   74          1
                                   No pseudopotential on this center.
   75          6
                                   No pseudopotential on this center.
   76          1
                                   No pseudopotential on this center.
   77          1
                                   No pseudopotential on this center.
   78          1
                                   No pseudopotential on this center.
   79          6
                                   No pseudopotential on this center.
   80          1
                                   No pseudopotential on this center.
   81          1
                                   No pseudopotential on this center.
   82          1
                                   No pseudopotential on this center.
   83          1
                                   No pseudopotential on this center.
   84          6
                                   No pseudopotential on this center.
   85          8
                                   No pseudopotential on this center.
   86          6
                                   No pseudopotential on this center.
   87          6
                                   No pseudopotential on this center.
   88          7
                                   No pseudopotential on this center.
   89          6
                                   No pseudopotential on this center.
   90          6
                                   No pseudopotential on this center.
   91          1
                                   No pseudopotential on this center.
   92          6
                                   No pseudopotential on this center.
   93          1
                                   No pseudopotential on this center.
   94          1
                                   No pseudopotential on this center.
   95          1
                                   No pseudopotential on this center.
   96          1
                                   No pseudopotential on this center.
   97          1
                                   No pseudopotential on this center.
   98          1
                                   No pseudopotential on this center.
   99          1
                                   No pseudopotential on this center.
  100          1
                                   No pseudopotential on this center.
  101          1
                                   No pseudopotential on this center.
  102          1
                                   No pseudopotential on this center.
  103          1
                                   No pseudopotential on this center.
  104          1
                                   No pseudopotential on this center.
  105          1
                                   No pseudopotential on this center.
 ======================================================================================================
 There are   843 symmetry adapted cartesian basis functions of A   symmetry.
 There are   794 symmetry adapted basis functions of A   symmetry.
   794 basis functions,  1587 primitive gaussians,   843 cartesian basis functions
   185 alpha electrons      185 beta electrons
       nuclear repulsion energy      7787.1530019028 Hartrees.
 NAtoms=  105 NActive=  105 NUniq=  105 SFac= 1.00D+00 NAtFMM=   60 NAOKFM=T Big=T
 Integral buffers will be    131072 words long.
 Raffenetti 2 integral format.
 Two-electron integral symmetry is turned on.
 One-electron integrals computed using PRISM.
   1 Symmetry operations used in ECPInt.
 ECPInt:  NShTT=   48205 NPrTT=  290969 LenC2=   38284 LenP2D=  118926.
 LDataN:  DoStor=T MaxTD1= 6 Len=  172
 NBasis=   794 RedAO= T EigKep=  5.44D-04  NBF=   794
 NBsUse=   794 1.00D-06 EigRej= -1.00D+00 NBFU=   794
 Defaulting to unpruned grid for atomic number  77.
 ExpMin= 2.90D-02 ExpMax= 5.48D+03 ExpMxC= 8.25D+02 IAcc=3 IRadAn=         5 AccDes= 0.00D+00
 Harris functional with IExCor= 1009 and IRadAn=       5 diagonalized for initial guess.
 HarFok:  IExCor= 1009 AccDes= 0.00D+00 IRadAn=         5 IDoV= 1 UseB2=F ITyADJ=14
 ICtDFT=  3500011 ScaDFX=  1.000000  1.000000  1.000000  1.000000
 Defaulting to unpruned grid for atomic number  77.
 FoFCou: FMM=F IPFlag=           0 FMFlag=      100000 FMFlg1=        2001
         NFxFlg=           0 DoJE=T BraDBF=F KetDBF=T FulRan=T
         wScrn=  0.000000 ICntrl=       500 IOpCl=  0 I1Cent=   200000004 NGrid=           0
         NMat0=    1 NMatS0=      1 NMatT0=    0 NMatD0=    1 NMtDS0=    0 NMtDT0=    0
 Petite list used in FoFCou.
 Requested convergence on RMS density matrix=1.00D-08 within 128 cycles.
 Requested convergence on MAX density matrix=1.00D-06.
 Requested convergence on             energy=1.00D-06.
 No special actions if energy rises.
 Defaulting to unpruned grid for atomic number  77.
 Defaulting to unpruned grid for atomic number  77.
 Defaulting to unpruned grid for atomic number  77.
 Defaulting to unpruned grid for atomic number  77.
 Defaulting to unpruned grid for atomic number  77.
 Defaulting to unpruned grid for atomic number  77.
 Defaulting to unpruned grid for atomic number  77.
 Defaulting to unpruned grid for atomic number  77.
 Defaulting to unpruned grid for atomic number  77.
 Defaulting to unpruned grid for atomic number  77.
 Defaulting to unpruned grid for atomic number  77.
 Defaulting to unpruned grid for atomic number  77.
 Defaulting to unpruned grid for atomic number  77.
 Defaulting to unpruned grid for atomic number  77.
 Defaulting to unpruned grid for atomic number  77.
 Defaulting to unpruned grid for atomic number  77.
 SCF Done:  E(RM06) =  -2198.96720040     A.U. after   15 cycles
            NFock= 15  Conv=0.65D-08     -V/T= 2.0403
 DoSCS=F DFT=T ScalE2(SS,OS)=  1.000000  1.000000
 Range of M.O.s used for correlation:     1   794
 NBasis=   794 NAE=   185 NBE=   185 NFC=     0 NFV=     0
 NROrb=    794 NOA=   185 NOB=   185 NVA=   609 NVB=   609

 **** Warning!!: The largest alpha MO coefficient is  0.13881443D+02

   1 Symmetry operations used in ECPInt.
 ECPInt:  NShTT=   48205 NPrTT=  290969 LenC2=   38284 LenP2D=  118926.
 LDataN:  DoStor=T MaxTD1= 7 Len=  274
 Number of processors reduced to   8 by ecpmxn.
 Symmetrizing basis deriv contribution to polar:
 IMax=3 JMax=2 DiffMx= 0.00D+00
 G2DrvN: will do   106 centers at a time, making    1 passes.
 Calling FoFCou, ICntrl=  3107 FMM=T I1Cent=   0 AccDes= 0.00D+00.
 Defaulting to unpruned grid for atomic number  77.
 Defaulting to unpruned grid for atomic number  77.
 Defaulting to unpruned grid for atomic number  77.
 Defaulting to unpruned grid for atomic number  77.
 Defaulting to unpruned grid for atomic number  77.
 Defaulting to unpruned grid for atomic number  77.
 Defaulting to unpruned grid for atomic number  77.
 Defaulting to unpruned grid for atomic number  77.
 Defaulting to unpruned grid for atomic number  77.
 Defaulting to unpruned grid for atomic number  77.
 Defaulting to unpruned grid for atomic number  77.
 Defaulting to unpruned grid for atomic number  77.
 Defaulting to unpruned grid for atomic number  77.
 Defaulting to unpruned grid for atomic number  77.
 Defaulting to unpruned grid for atomic number  77.
 Defaulting to unpruned grid for atomic number  77.
 End of G2Drv F.D. properties file   721 does not exist.
 End of G2Drv F.D. properties file   722 does not exist.
 End of G2Drv F.D. properties file   788 does not exist.
          IDoAtm=11111111111111111111111111111111111111111111111111
          IDoAtm=11111111111111111111111111111111111111111111111111
          IDoAtm=11111
          Differentiating once with respect to electric field.
                with respect to dipole field.
          Differentiating once with respect to nuclear coordinates.
 Defaulting to unpruned grid for atomic number  77.
 CalDSu exits because no D1Ps are significant.
 Defaulting to unpruned grid for atomic number  77.
 Defaulting to unpruned grid for atomic number  77.
 Defaulting to unpruned grid for atomic number  77.
 Defaulting to unpruned grid for atomic number  77.
 Defaulting to unpruned grid for atomic number  77.
 Defaulting to unpruned grid for atomic number  77.
 Defaulting to unpruned grid for atomic number  77.
 Defaulting to unpruned grid for atomic number  77.
 Defaulting to unpruned grid for atomic number  77.
 Defaulting to unpruned grid for atomic number  77.
 Defaulting to unpruned grid for atomic number  77.
 Defaulting to unpruned grid for atomic number  77.
 Defaulting to unpruned grid for atomic number  77.
 Defaulting to unpruned grid for atomic number  77.
 Defaulting to unpruned grid for atomic number  77.
 Defaulting to unpruned grid for atomic number  77.
          There are   318 degrees of freedom in the 1st order CPHF.  IDoFFX=6 NUNeed=     3.
    315 vectors produced by pass  0 Test12= 1.13D-13 1.00D-09 XBig12= 4.18D+02 6.48D+00.
 AX will form    72 AO Fock derivatives at one time.
    315 vectors produced by pass  1 Test12= 1.13D-13 1.00D-09 XBig12= 6.85D+01 1.41D+00.
    315 vectors produced by pass  2 Test12= 1.13D-13 1.00D-09 XBig12= 6.82D-01 5.80D-02.
    315 vectors produced by pass  3 Test12= 1.13D-13 1.00D-09 XBig12= 3.69D-03 5.77D-03.
    315 vectors produced by pass  4 Test12= 1.13D-13 1.00D-09 XBig12= 1.17D-05 3.77D-04.
    274 vectors produced by pass  5 Test12= 1.13D-13 1.00D-09 XBig12= 2.09D-08 1.01D-05.
     66 vectors produced by pass  6 Test12= 1.13D-13 1.00D-09 XBig12= 2.95D-11 3.40D-07.
      3 vectors produced by pass  7 Test12= 1.13D-13 1.00D-09 XBig12= 4.21D-14 1.58D-08.
 InvSVY:  IOpt=1 It=  1 EMax= 1.78D-14
 Solved reduced A of dimension  1918 with   318 vectors.
 Isotropic polarizability for W=    0.000000      467.63 Bohr**3.
 End of Minotr F.D. properties file   721 does not exist.
 End of Minotr F.D. properties file   722 does not exist.
 End of Minotr F.D. properties file   788 does not exist.
 Hyperfine terms turned off by default for NAtoms > 100.

 **********************************************************************

            Population analysis using the SCF Density.

 **********************************************************************

 Orbital symmetries:
       Occupied  (A) (A) (A) (A) (A) (A) (A) (A) (A) (A) (A) (A)
                 (A) (A) (A) (A) (A) (A) (A) (A) (A) (A) (A) (A)
                 (A) (A) (A) (A) (A) (A) (A) (A) (A) (A) (A) (A)
                 (A) (A) (A) (A) (A) (A) (A) (A) (A) (A) (A) (A)
                 (A) (A) (A) (A) (A) (A) (A) (A) (A) (A) (A) (A)
                 (A) (A) (A) (A) (A) (A) (A) (A) (A) (A) (A) (A)
                 (A) (A) (A) (A) (A) (A) (A) (A) (A) (A) (A) (A)
                 (A) (A) (A) (A) (A) (A) (A) (A) (A) (A) (A) (A)
                 (A) (A) (A) (A) (A) (A) (A) (A) (A) (A) (A) (A)
                 (A) (A) (A) (A) (A) (A) (A) (A) (A) (A) (A) (A)
                 (A) (A) (A) (A) (A) (A) (A) (A) (A) (A) (A) (A)
                 (A) (A) (A) (A) (A) (A) (A) (A) (A) (A) (A) (A)
                 (A) (A) (A) (A) (A) (A) (A) (A) (A) (A) (A) (A)
                 (A) (A) (A) (A) (A) (A) (A) (A) (A) (A) (A) (A)
                 (A) (A) (A) (A) (A) (A) (A) (A) (A) (A) (A) (A)
                 (A) (A) (A) (A) (A)
       Virtual   (A) (A) (A) (A) (A) (A) (A) (A) (A) (A) (A) (A)
                 (A) (A) (A) (A) (A) (A) (A) (A) (A) (A) (A) (A)
                 (A) (A) (A) (A) (A) (A) (A) (A) (A) (A) (A) (A)
                 (A) (A) (A) (A) (A) (A) (A) (A) (A) (A) (A) (A)
                 (A) (A) (A) (A) (A) (A) (A) (A) (A) (A) (A) (A)
                 (A) (A) (A) (A) (A) (A) (A) (A) (A) (A) (A) (A)
                 (A) (A) (A) (A) (A) (A) (A) (A) (A) (A) (A) (A)
                 (A) (A) (A) (A) (A) (A) (A) (A) (A) (A) (A) (A)
                 (A) (A) (A) (A) (A) (A) (A) (A) (A) (A) (A) (A)
                 (A) (A) (A) (A) (A) (A) (A) (A) (A) (A) (A) (A)
                 (A) (A) (A) (A) (A) (A) (A) (A) (A) (A) (A) (A)
                 (A) (A) (A) (A) (A) (A) (A) (A) (A) (A) (A) (A)
                 (A) (A) (A) (A) (A) (A) (A) (A) (A) (A) (A) (A)
                 (A) (A) (A) (A) (A) (A) (A) (A) (A) (A) (A) (A)
                 (A) (A) (A) (A) (A) (A) (A) (A) (A) (A) (A) (A)
                 (A) (A) (A) (A) (A) (A) (A) (A) (A) (A) (A) (A)
                 (A) (A) (A) (A) (A) (A) (A) (A) (A) (A) (A) (A)
                 (A) (A) (A) (A) (A) (A) (A) (A) (A) (A) (A) (A)
                 (A) (A) (A) (A) (A) (A) (A) (A) (A) (A) (A) (A)
                 (A) (A) (A) (A) (A) (A) (A) (A) (A) (A) (A) (A)
                 (A) (A) (A) (A) (A) (A) (A) (A) (A) (A) (A) (A)
                 (A) (A) (A) (A) (A) (A) (A) (A) (A) (A) (A) (A)
                 (A) (A) (A) (A) (A) (A) (A) (A) (A) (A) (A) (A)
                 (A) (A) (A) (A) (A) (A) (A) (A) (A) (A) (A) (A)
                 (A) (A) (A) (A) (A) (A) (A) (A) (A) (A) (A) (A)
                 (A) (A) (A) (A) (A) (A) (A) (A) (A) (A) (A) (A)
                 (A) (A) (A) (A) (A) (A) (A) (A) (A) (A) (A) (A)
                 (A) (A) (A) (A) (A) (A) (A) (A) (A) (A) (A) (A)
                 (A) (A) (A) (A) (A) (A) (A) (A) (A) (A) (A) (A)
                 (A) (A) (A) (A) (A) (A) (A) (A) (A) (A) (A) (A)
                 (A) (A) (A) (A) (A) (A) (A) (A) (A) (A) (A) (A)
                 (A) (A) (A) (A) (A) (A) (A) (A) (A) (A) (A) (A)
                 (A) (A) (A) (A) (A) (A) (A) (A) (A) (A) (A) (A)
                 (A) (A) (A) (A) (A) (A) (A) (A) (A) (A) (A) (A)
                 (A) (A) (A) (A) (A) (A) (A) (A) (A) (A) (A) (A)
                 (A) (A) (A) (A) (A) (A) (A) (A) (A) (A) (A) (A)
                 (A) (A) (A) (A) (A) (A) (A) (A) (A) (A) (A) (A)
                 (A) (A) (A) (A) (A) (A) (A) (A) (A) (A) (A) (A)
                 (A) (A) (A) (A) (A) (A) (A) (A) (A) (A) (A) (A)
                 (A) (A) (A) (A) (A) (A) (A) (A) (A) (A) (A) (A)
                 (A) (A) (A) (A) (A) (A) (A) (A) (A) (A) (A) (A)
                 (A) (A) (A) (A) (A) (A) (A) (A) (A) (A) (A) (A)
                 (A) (A) (A) (A) (A) (A) (A) (A) (A) (A) (A) (A)
                 (A) (A) (A) (A) (A) (A) (A) (A) (A) (A) (A) (A)
                 (A) (A) (A) (A) (A) (A) (A) (A) (A) (A) (A) (A)
                 (A) (A) (A) (A) (A) (A) (A) (A) (A) (A) (A) (A)
                 (A) (A) (A) (A) (A) (A) (A) (A) (A) (A) (A) (A)
                 (A) (A) (A) (A) (A) (A) (A) (A) (A) (A) (A) (A)
                 (A) (A) (A) (A) (A) (A) (A) (A) (A) (A) (A) (A)
                 (A) (A) (A) (A) (A) (A) (A) (A) (A) (A) (A) (A)
                 (A) (A) (A) (A) (A) (A) (A) (A) (A)
 The electronic state is 1-A.
 Alpha  occ. eigenvalues --  -19.21144 -19.20601 -19.20350 -19.20271 -19.19626
 Alpha  occ. eigenvalues --  -19.18931 -19.15683 -14.44988 -14.43684 -14.39930
 Alpha  occ. eigenvalues --  -10.31366 -10.31284 -10.31254 -10.29943 -10.29657
 Alpha  occ. eigenvalues --  -10.29569 -10.29452 -10.29303 -10.28953 -10.28603
 Alpha  occ. eigenvalues --  -10.28378 -10.28303 -10.27875 -10.27664 -10.27250
 Alpha  occ. eigenvalues --  -10.27169 -10.26620 -10.25777 -10.24000 -10.23303
 Alpha  occ. eigenvalues --  -10.23214 -10.23128 -10.23070 -10.22961 -10.22844
 Alpha  occ. eigenvalues --  -10.22356 -10.22302 -10.22236 -10.22035 -10.21997
 Alpha  occ. eigenvalues --  -10.21786 -10.21686 -10.21662 -10.21073  -6.81697
 Alpha  occ. eigenvalues --   -6.80994  -6.78680  -3.63989  -2.06854  -2.05780
 Alpha  occ. eigenvalues --   -2.04731  -1.06832  -1.06355  -1.05395  -1.01526
 Alpha  occ. eigenvalues --   -0.99872  -0.99434  -0.99245  -0.98362  -0.96767
 Alpha  occ. eigenvalues --   -0.91269  -0.83627  -0.82780  -0.82021  -0.80922
 Alpha  occ. eigenvalues --   -0.80440  -0.79557  -0.79422  -0.76561  -0.75323
 Alpha  occ. eigenvalues --   -0.74918  -0.74018  -0.70862  -0.70329  -0.69575
 Alpha  occ. eigenvalues --   -0.69392  -0.68196  -0.68111  -0.68033  -0.67625
 Alpha  occ. eigenvalues --   -0.67194  -0.66852  -0.66505  -0.63798  -0.62821
 Alpha  occ. eigenvalues --   -0.62295  -0.61511  -0.60714  -0.58665  -0.56954
 Alpha  occ. eigenvalues --   -0.55233  -0.55041  -0.54379  -0.53817  -0.53320
 Alpha  occ. eigenvalues --   -0.52666  -0.52523  -0.52431  -0.50991  -0.50164
 Alpha  occ. eigenvalues --   -0.49341  -0.49020  -0.48254  -0.47137  -0.47117
 Alpha  occ. eigenvalues --   -0.46832  -0.46459  -0.46387  -0.45900  -0.45593
 Alpha  occ. eigenvalues --   -0.45374  -0.45296  -0.45119  -0.44849  -0.44671
 Alpha  occ. eigenvalues --   -0.44005  -0.43907  -0.43816  -0.43594  -0.43432
 Alpha  occ. eigenvalues --   -0.43269  -0.42775  -0.41831  -0.41518  -0.40497
 Alpha  occ. eigenvalues --   -0.40433  -0.40230  -0.40132  -0.39997  -0.39962
 Alpha  occ. eigenvalues --   -0.39791  -0.39588  -0.39474  -0.39341  -0.39189
 Alpha  occ. eigenvalues --   -0.39147  -0.38695  -0.38473  -0.38341  -0.38120
 Alpha  occ. eigenvalues --   -0.37998  -0.37913  -0.37624  -0.37556  -0.36985
 Alpha  occ. eigenvalues --   -0.36826  -0.36639  -0.36460  -0.36143  -0.35961
 Alpha  occ. eigenvalues --   -0.35759  -0.35392  -0.35126  -0.35069  -0.35057
 Alpha  occ. eigenvalues --   -0.34741  -0.34475  -0.34205  -0.34092  -0.33558
 Alpha  occ. eigenvalues --   -0.33070  -0.32874  -0.32667  -0.32452  -0.32016
 Alpha  occ. eigenvalues --   -0.31860  -0.31353  -0.31054  -0.30934  -0.30699
 Alpha  occ. eigenvalues --   -0.30502  -0.30175  -0.29514  -0.28757  -0.27263
 Alpha  occ. eigenvalues --   -0.26871  -0.26486  -0.25746  -0.25493  -0.25319
 Alpha  occ. eigenvalues --   -0.24574  -0.23190  -0.22699  -0.22209  -0.18039
 Alpha virt. eigenvalues --   -0.06216  -0.03012  -0.02209   0.02535   0.02573
 Alpha virt. eigenvalues --    0.04481   0.05549   0.06216   0.06777   0.07090
 Alpha virt. eigenvalues --    0.07594   0.08734   0.09630   0.09722   0.10535
 Alpha virt. eigenvalues --    0.10956   0.11149   0.11793   0.11934   0.12078
 Alpha virt. eigenvalues --    0.12522   0.12939   0.13135   0.13681   0.14097
 Alpha virt. eigenvalues --    0.14297   0.14482   0.14984   0.15111   0.15216
 Alpha virt. eigenvalues --    0.15379   0.15501   0.15628   0.15858   0.16050
 Alpha virt. eigenvalues --    0.16293   0.16498   0.16657   0.16885   0.17030
 Alpha virt. eigenvalues --    0.17239   0.17408   0.17594   0.17877   0.17919
 Alpha virt. eigenvalues --    0.17971   0.18039   0.18261   0.18636   0.18842
 Alpha virt. eigenvalues --    0.19085   0.19358   0.19451   0.19718   0.19809
 Alpha virt. eigenvalues --    0.20158   0.20229   0.20389   0.20599   0.20836
 Alpha virt. eigenvalues --    0.21075   0.21225   0.21404   0.21569   0.21770
 Alpha virt. eigenvalues --    0.21940   0.22230   0.22492   0.22578   0.22743
 Alpha virt. eigenvalues --    0.23032   0.23498   0.23629   0.23997   0.24168
 Alpha virt. eigenvalues --    0.24524   0.24732   0.25008   0.25301   0.25537
 Alpha virt. eigenvalues --    0.25718   0.25973   0.26150   0.26432   0.26729
 Alpha virt. eigenvalues --    0.26856   0.27378   0.27652   0.27973   0.28193
 Alpha virt. eigenvalues --    0.28499   0.28615   0.29114   0.29405   0.29633
 Alpha virt. eigenvalues --    0.30061   0.30387   0.30572   0.31144   0.31415
 Alpha virt. eigenvalues --    0.31833   0.32605   0.33432   0.34159   0.34504
 Alpha virt. eigenvalues --    0.35244   0.36229   0.36603   0.36883   0.37901
 Alpha virt. eigenvalues --    0.38556   0.38978   0.39855   0.40007   0.41715
 Alpha virt. eigenvalues --    0.42427   0.43200   0.45155   0.46381   0.47446
 Alpha virt. eigenvalues --    0.48084   0.48407   0.49336   0.49893   0.50048
 Alpha virt. eigenvalues --    0.50439   0.50685   0.51315   0.51680   0.52255
 Alpha virt. eigenvalues --    0.52458   0.52896   0.53074   0.53533   0.53898
 Alpha virt. eigenvalues --    0.54371   0.54397   0.55015   0.55344   0.55939
 Alpha virt. eigenvalues --    0.56532   0.56769   0.57007   0.57079   0.57468
 Alpha virt. eigenvalues --    0.57606   0.58181   0.58261   0.58605   0.58807
 Alpha virt. eigenvalues --    0.58987   0.59102   0.59276   0.59522   0.59900
 Alpha virt. eigenvalues --    0.60013   0.60313   0.60525   0.60853   0.60941
 Alpha virt. eigenvalues --    0.61394   0.61702   0.62317   0.62435   0.62724
 Alpha virt. eigenvalues --    0.63274   0.63496   0.63923   0.64262   0.64514
 Alpha virt. eigenvalues --    0.64875   0.65273   0.65496   0.65738   0.65993
 Alpha virt. eigenvalues --    0.66548   0.67284   0.67749   0.68001   0.68448
 Alpha virt. eigenvalues --    0.68536   0.68814   0.69760   0.69932   0.70420
 Alpha virt. eigenvalues --    0.70697   0.71032   0.71443   0.71532   0.72014
 Alpha virt. eigenvalues --    0.72409   0.72639   0.73055   0.73269   0.73813
 Alpha virt. eigenvalues --    0.73986   0.74365   0.74847   0.75196   0.75537
 Alpha virt. eigenvalues --    0.75917   0.76093   0.76853   0.77202   0.77700
 Alpha virt. eigenvalues --    0.78148   0.78282   0.78979   0.79177   0.79247
 Alpha virt. eigenvalues --    0.79820   0.80061   0.80215   0.80782   0.81176
 Alpha virt. eigenvalues --    0.81507   0.82177   0.82655   0.82874   0.82963
 Alpha virt. eigenvalues --    0.83229   0.83666   0.84038   0.84346   0.84562
 Alpha virt. eigenvalues --    0.84596   0.85268   0.85486   0.85643   0.85954
 Alpha virt. eigenvalues --    0.86031   0.86479   0.86660   0.86783   0.87131
 Alpha virt. eigenvalues --    0.87323   0.87567   0.88160   0.88275   0.88494
 Alpha virt. eigenvalues --    0.88811   0.89174   0.89415   0.89636   0.89712
 Alpha virt. eigenvalues --    0.89959   0.90201   0.90329   0.90500   0.90949
 Alpha virt. eigenvalues --    0.91083   0.91324   0.91511   0.91596   0.92108
 Alpha virt. eigenvalues --    0.92114   0.92759   0.92802   0.92906   0.93651
 Alpha virt. eigenvalues --    0.93804   0.93929   0.94609   0.94816   0.95122
 Alpha virt. eigenvalues --    0.95321   0.95635   0.95858   0.96243   0.96413
 Alpha virt. eigenvalues --    0.96663   0.96763   0.97435   0.97526   0.98143
 Alpha virt. eigenvalues --    0.98517   0.98661   0.99051   0.99348   0.99886
 Alpha virt. eigenvalues --    1.00419   1.00695   1.00873   1.01041   1.01871
 Alpha virt. eigenvalues --    1.01994   1.02811   1.03370   1.03967   1.04591
 Alpha virt. eigenvalues --    1.05091   1.05607   1.06255   1.06891   1.07715
 Alpha virt. eigenvalues --    1.08118   1.08465   1.09702   1.09714   1.10227
 Alpha virt. eigenvalues --    1.10701   1.11125   1.11817   1.12745   1.13442
 Alpha virt. eigenvalues --    1.13713   1.15086   1.15504   1.16209   1.17059
 Alpha virt. eigenvalues --    1.17568   1.18554   1.19151   1.19550   1.20080
 Alpha virt. eigenvalues --    1.20600   1.20763   1.21379   1.21758   1.22481
 Alpha virt. eigenvalues --    1.23181   1.23766   1.24379   1.24902   1.25281
 Alpha virt. eigenvalues --    1.26004   1.26375   1.27602   1.27982   1.29180
 Alpha virt. eigenvalues --    1.29634   1.30384   1.31221   1.31421   1.32370
 Alpha virt. eigenvalues --    1.32993   1.33430   1.34425   1.35894   1.36373
 Alpha virt. eigenvalues --    1.37447   1.37917   1.38739   1.39697   1.40613
 Alpha virt. eigenvalues --    1.41237   1.41696   1.41838   1.42285   1.43298
 Alpha virt. eigenvalues --    1.43587   1.44029   1.45077   1.45400   1.45687
 Alpha virt. eigenvalues --    1.45771   1.46360   1.46662   1.47487   1.47808
 Alpha virt. eigenvalues --    1.48455   1.48761   1.49577   1.50040   1.50559
 Alpha virt. eigenvalues --    1.50708   1.51542   1.52557   1.53757   1.54871
 Alpha virt. eigenvalues --    1.55478   1.56382   1.56908   1.57416   1.59205
 Alpha virt. eigenvalues --    1.59791   1.61382   1.62273   1.62935   1.63174
 Alpha virt. eigenvalues --    1.64326   1.64789   1.65196   1.66109   1.66441
 Alpha virt. eigenvalues --    1.66891   1.67630   1.68941   1.69160   1.69586
 Alpha virt. eigenvalues --    1.70319   1.70743   1.71530   1.72580   1.73109
 Alpha virt. eigenvalues --    1.74497   1.75205   1.75711   1.76578   1.77116
 Alpha virt. eigenvalues --    1.77462   1.78195   1.78832   1.79360   1.79904
 Alpha virt. eigenvalues --    1.80071   1.80961   1.81132   1.81576   1.81875
 Alpha virt. eigenvalues --    1.82803   1.83176   1.83397   1.84163   1.84349
 Alpha virt. eigenvalues --    1.85099   1.85349   1.85542   1.87085   1.87286
 Alpha virt. eigenvalues --    1.87739   1.87984   1.88312   1.88492   1.89365
 Alpha virt. eigenvalues --    1.90421   1.90647   1.91107   1.91507   1.91845
 Alpha virt. eigenvalues --    1.92035   1.92166   1.92306   1.92535   1.92687
 Alpha virt. eigenvalues --    1.93119   1.93566   1.93789   1.94021   1.94546
 Alpha virt. eigenvalues --    1.95206   1.95770   1.96421   1.96700   1.97411
 Alpha virt. eigenvalues --    1.97736   1.98485   1.99236   2.00080   2.00330
 Alpha virt. eigenvalues --    2.01025   2.01568   2.01845   2.02678   2.03207
 Alpha virt. eigenvalues --    2.03252   2.04494   2.04645   2.05043   2.05493
 Alpha virt. eigenvalues --    2.05940   2.06434   2.06983   2.07261   2.07452
 Alpha virt. eigenvalues --    2.07985   2.08419   2.08673   2.09852   2.10340
 Alpha virt. eigenvalues --    2.10628   2.11016   2.11396   2.11524   2.11996
 Alpha virt. eigenvalues --    2.12406   2.13658   2.13900   2.14492   2.14768
 Alpha virt. eigenvalues --    2.15196   2.15548   2.15938   2.16199   2.16727
 Alpha virt. eigenvalues --    2.17255   2.17352   2.18086   2.18322   2.18517
 Alpha virt. eigenvalues --    2.18931   2.19072   2.19486   2.19744   2.20067
 Alpha virt. eigenvalues --    2.20217   2.20581   2.20700   2.20970   2.21654
 Alpha virt. eigenvalues --    2.21877   2.22245   2.22607   2.22870   2.23671
 Alpha virt. eigenvalues --    2.24027   2.24154   2.24849   2.25821   2.26161
 Alpha virt. eigenvalues --    2.26709   2.26991   2.27140   2.27755   2.28682
 Alpha virt. eigenvalues --    2.28838   2.29411   2.29995   2.31909   2.32022
 Alpha virt. eigenvalues --    2.32430   2.32559   2.32818   2.33693   2.34308
 Alpha virt. eigenvalues --    2.35047   2.35399   2.36173   2.36898   2.37499
 Alpha virt. eigenvalues --    2.38615   2.38968   2.39698   2.39724   2.40566
 Alpha virt. eigenvalues --    2.40658   2.42674   2.43965   2.44830   2.45699
 Alpha virt. eigenvalues --    2.47381   2.48518   2.48653   2.49061   2.49281
 Alpha virt. eigenvalues --    2.49825   2.49888   2.50572   2.53988   2.54596
 Alpha virt. eigenvalues --    2.55623   2.57494   2.57687   2.59581   2.60192
 Alpha virt. eigenvalues --    2.60807   2.61107   2.61631   2.62088   2.62811
 Alpha virt. eigenvalues --    2.64361   2.64848   2.65575   2.65956   2.68181
 Alpha virt. eigenvalues --    2.68893   2.69513   2.70107   2.71097   2.73136
 Alpha virt. eigenvalues --    2.76654   2.77697   2.78063   2.78991   2.79218
 Alpha virt. eigenvalues --    2.79380   2.80238   2.80290   2.80930   2.81319
 Alpha virt. eigenvalues --    2.81759   2.82342   2.83445   2.83821   2.85406
 Alpha virt. eigenvalues --    2.86406   2.87309   2.88977   2.91002   2.92275
 Alpha virt. eigenvalues --    2.92765   2.94539   2.96910   2.98017   2.99323
 Alpha virt. eigenvalues --    2.99730   3.00899   3.03861   3.06151   3.07617
 Alpha virt. eigenvalues --    3.09612   3.11455   3.13265   3.14130   3.22843
 Alpha virt. eigenvalues --    3.25868   3.31590   3.45277  14.60985
          Condensed to atoms (all electrons):
 Mulliken charges:
               1
     1  C    0.288671
     2  C    0.047407
     3  C   -0.172486
     4  C   -0.143040
     5  C   -0.179744
     6  C    0.328206
     7  C    0.060738
     8  C   -0.162145
     9  C   -0.130235
    10  C   -0.162616
    11  H    0.213565
    12  H    0.178564
    13  H    0.168274
    14  H    0.250354
    15  H    0.178823
    16  H    0.163872
    17  N   -0.450871
    18  N   -0.539803
    19  Ir  -0.146957
    20  O   -0.488579
    21  O   -0.505932
    22  O   -0.523955
    23  B    0.501852
    24  B    0.488016
    25  B    0.464848
    26  O   -0.516795
    27  O   -0.516123
    28  C    0.289205
    29  C    0.289148
    30  C    0.301023
    31  C    0.287098
    32  C    0.289955
    33  C    0.307754
    34  O   -0.539032
    35  C   -0.504703
    36  H    0.149204
    37  H    0.170007
    38  H    0.165681
    39  C   -0.494898
    40  H    0.166542
    41  H    0.171413
    42  H    0.146766
    43  C   -0.495852
    44  H    0.153437
    45  H    0.158133
    46  H    0.161278
    47  C   -0.509112
    48  H    0.151945
    49  H    0.170728
    50  H    0.169571
    51  C   -0.497844
    52  H    0.185167
    53  H    0.159501
    54  H    0.138809
    55  C   -0.513239
    56  H    0.146735
    57  H    0.165967
    58  H    0.171695
    59  C   -0.513450
    60  H    0.174444
    61  H    0.149439
    62  H    0.162820
    63  C   -0.511891
    64  H    0.170246
    65  H    0.148353
    66  H    0.179690
    67  C   -0.509641
    68  H    0.164013
    69  H    0.151704
    70  H    0.171253
    71  C   -0.501952
    72  H    0.145852
    73  H    0.184916
    74  H    0.171211
    75  C   -0.514460
    76  H    0.151769
    77  H    0.163038
    78  H    0.174199
    79  C   -0.501946
    80  H    0.171691
    81  H    0.166576
    82  H    0.146615
    83  H    0.171751
    84  C    0.568445
    85  O   -0.538266
    86  C   -0.185207
    87  C   -0.357565
    88  N   -0.358651
    89  C   -0.375195
    90  C   -0.481443
    91  H    0.139200
    92  C   -0.486744
    93  H    0.153081
    94  H    0.150583
    95  H    0.161365
    96  H    0.160147
    97  H    0.188278
    98  H    0.204649
    99  H    0.174516
   100  H    0.161209
   101  H    0.179240
   102  H    0.143850
   103  H    0.167434
   104  H    0.180975
   105  H    0.177873
 Sum of Mulliken charges =  -0.00000
 Mulliken charges with hydrogens summed into heavy atoms:
               1
     1  C    0.288671
     2  C    0.260973
     3  C    0.005388
     4  C    0.035524
     5  C   -0.011470
     6  C    0.328206
     7  C    0.311092
     8  C    0.018830
     9  C    0.048588
    10  C    0.001256
    17  N   -0.450871
    18  N   -0.539803
    19  Ir   0.024794
    20  O   -0.488579
    21  O   -0.505932
    22  O   -0.523955
    23  B    0.501852
    24  B    0.488016
    25  B    0.464848
    26  O   -0.516795
    27  O   -0.516123
    28  C    0.289205
    29  C    0.289148
    30  C    0.301023
    31  C    0.287098
    32  C    0.289955
    33  C    0.307754
    34  O   -0.539032
    35  C   -0.019811
    39  C   -0.010178
    43  C   -0.023003
    47  C   -0.016869
    51  C   -0.014367
    55  C   -0.028842
    59  C   -0.026747
    63  C   -0.013602
    67  C   -0.022671
    71  C    0.000027
    75  C   -0.025454
    79  C   -0.017065
    84  C    0.568445
    85  O   -0.538266
    86  C   -0.046008
    87  C   -0.009140
    88  N   -0.358651
    89  C    0.165178
    90  C   -0.016414
    92  C    0.003781
 APT charges:
               1
     1  C    0.207092
     2  C    0.068306
     3  C   -0.057728
     4  C    0.111671
     5  C   -0.184092
     6  C    0.160387
     7  C    0.033865
     8  C   -0.057726
     9  C    0.130417
    10  C   -0.166053
    11  H    0.096975
    12  H    0.028322
    13  H    0.042553
    14  H    0.158829
    15  H    0.028572
    16  H    0.039533
    17  N   -0.222922
    18  N   -0.101338
    19  Ir  -0.768327
    20  O   -0.897619
    21  O   -0.962587
    22  O   -0.991650
    23  B    1.290947
    24  B    1.140354
    25  B    1.333871
    26  O   -1.014371
    27  O   -0.887579
    28  C    0.438919
    29  C    0.464256
    30  C    0.526757
    31  C    0.503655
    32  C    0.476441
    33  C    0.525199
    34  O   -1.017988
    35  C   -0.005601
    36  H   -0.014140
    37  H    0.001781
    38  H   -0.001245
    39  C   -0.018168
    40  H    0.008867
    41  H    0.002550
    42  H   -0.027192
    43  C   -0.023469
    44  H   -0.016178
    45  H   -0.001167
    46  H   -0.000527
    47  C    0.004876
    48  H   -0.016866
    49  H   -0.001307
    50  H    0.001664
    51  C   -0.023252
    52  H    0.022933
    53  H   -0.012710
    54  H   -0.031325
    55  C   -0.004178
    56  H   -0.019829
    57  H   -0.006886
    58  H    0.001159
    59  C   -0.013744
    60  H    0.007518
    61  H   -0.017785
    62  H   -0.004331
    63  C   -0.043954
    64  H    0.004136
    65  H   -0.025241
    66  H    0.012033
    67  C   -0.000402
    68  H   -0.000765
    69  H   -0.020300
    70  H    0.005854
    71  C   -0.037004
    72  H   -0.028701
    73  H    0.011035
    74  H    0.009632
    75  C   -0.013262
    76  H   -0.014645
    77  H   -0.003957
    78  H    0.003833
    79  C   -0.025535
    80  H    0.004227
    81  H   -0.002686
    82  H   -0.024077
    83  H   -0.023007
    84  C    0.825690
    85  O   -0.692022
    86  C    0.039850
    87  C    0.375182
    88  N   -0.762159
    89  C    0.269375
    90  C    0.021064
    91  H   -0.050000
    92  C    0.060860
    93  H    0.009311
    94  H   -0.023763
    95  H   -0.032279
    96  H   -0.076671
    97  H   -0.018618
    98  H    0.016843
    99  H   -0.053601
   100  H   -0.012852
   101  H    0.026743
   102  H   -0.039471
   103  H   -0.010159
   104  H    0.038252
   105  H    0.032823
 Sum of APT charges =  -0.00000
 APT charges with hydrogens summed into heavy atoms:
               1
     1  C    0.207092
     2  C    0.165280
     3  C   -0.024905
     4  C    0.139993
     5  C   -0.141539
     6  C    0.160387
     7  C    0.192694
     8  C   -0.019475
     9  C    0.158989
    10  C   -0.126520
    17  N   -0.222922
    18  N   -0.101338
    19  Ir  -0.791334
    20  O   -0.897619
    21  O   -0.962587
    22  O   -0.991650
    23  B    1.290947
    24  B    1.140354
    25  B    1.333871
    26  O   -1.014371
    27  O   -0.887579
    28  C    0.438919
    29  C    0.464256
    30  C    0.526757
    31  C    0.503655
    32  C    0.476441
    33  C    0.525199
    34  O   -1.017988
    35  C   -0.019204
    39  C   -0.033943
    43  C   -0.041341
    47  C   -0.011632
    51  C   -0.044354
    55  C   -0.029735
    59  C   -0.028341
    63  C   -0.053026
    67  C   -0.015613
    71  C   -0.045037
    75  C   -0.028031
    79  C   -0.048072
    84  C    0.825690
    85  O   -0.692022
    86  C   -0.010150
    87  C    0.279893
    88  N   -0.762159
    89  C    0.219765
    90  C   -0.025666
    92  C    0.037973
 Electronic spatial extent (au):  <R**2>=          24462.8032
 Charge=              0.0000 electrons
 Dipole moment (field-independent basis, Debye):
    X=             -1.1285    Y=             -4.7313    Z=              2.3634  Tot=              5.4079
 Quadrupole moment (field-independent basis, Debye-Ang):
   XX=           -290.4196   YY=           -289.1228   ZZ=           -282.0158
   XY=             16.1007   XZ=             -4.3052   YZ=              4.9216
 Traceless Quadrupole moment (field-independent basis, Debye-Ang):
   XX=             -3.2335   YY=             -1.9367   ZZ=              5.1702
   XY=             16.1007   XZ=             -4.3052   YZ=              4.9216
 Octapole moment (field-independent basis, Debye-Ang**2):
  XXX=              2.8697  YYY=              6.3762  ZZZ=             -8.3379  XYY=             -5.6176
  XXY=            -71.3616  XXZ=             -9.9852  XZZ=            -43.2075  YZZ=              2.1275
  YYZ=            -24.7863  XYZ=              2.9035
 Hexadecapole moment (field-independent basis, Debye-Ang**3):
 XXXX=         -15581.7677 YYYY=          -9511.1702 ZZZZ=          -7269.7179 XXXY=            237.3951
 XXXZ=            -99.3719 YYYX=            271.9679 YYYZ=             96.5149 ZZZX=            -70.0414
 ZZZY=             46.3162 XXYY=          -4079.2555 XXZZ=          -3594.6412 YYZZ=          -2804.9308
 XXYZ=             -6.1983 YYXZ=            -10.9670 ZZXY=           -106.9494
 N-N= 7.787153001903D+03 E-N=-2.067049903448D+04  KE= 2.113839722339D+03
  Exact polarizability:     500.238      23.549     465.942     -30.423      28.489     436.703
 Approx polarizability:     671.266      48.012     695.819     -67.500      67.330     685.628
   1 Symmetry operations used in ECPInt.
 ECPInt:  NShTT=   48205 NPrTT=  290969 LenC2=   38284 LenP2D=  118926.
 LDataN:  DoStor=T MaxTD1= 8 Len=  415
 Calling FoFJK, ICntrl=    100127 FMM=F ISym2X=0 I1Cent= 0 IOpClX= 0 NMat=1 NMatS=1 NMatT=0.
 Defaulting to unpruned grid for atomic number  77.
 Defaulting to unpruned grid for atomic number  77.
 Defaulting to unpruned grid for atomic number  77.
 Defaulting to unpruned grid for atomic number  77.
 Defaulting to unpruned grid for atomic number  77.
 Defaulting to unpruned grid for atomic number  77.
 Defaulting to unpruned grid for atomic number  77.
 Defaulting to unpruned grid for atomic number  77.
 Defaulting to unpruned grid for atomic number  77.
 Defaulting to unpruned grid for atomic number  77.
 Defaulting to unpruned grid for atomic number  77.
 Defaulting to unpruned grid for atomic number  77.
 Defaulting to unpruned grid for atomic number  77.
 Defaulting to unpruned grid for atomic number  77.
 Defaulting to unpruned grid for atomic number  77.
 Defaulting to unpruned grid for atomic number  77.
 Full mass-weighted force constant matrix:
 Low frequencies ---   -0.0001    0.0003    0.0005    2.2364    6.8984    9.3302
 Low frequencies ---   19.9043   27.7902   30.0688
 Diagonal vibrational polarizability:
       91.9982245      79.6205789      56.4917162
 Harmonic frequencies (cm**-1), IR intensities (KM/Mole), Raman scattering
 activities (A**4/AMU), depolarization ratios for plane and unpolarized
 incident light, reduced masses (AMU), force constants (mDyne/A),
 and normal coordinates:
                      1                      2                      3
                      A                      A                      A
 Frequencies --     19.8566                27.7542                29.9654
 Red. masses --      4.6101                 4.2662                 3.9379
 Frc consts  --      0.0011                 0.0019                 0.0021
 IR Inten    --      0.2693                 0.4450                 0.2416
  Atom AN      X      Y      Z        X      Y      Z        X      Y      Z
     1   6     0.02  -0.04  -0.04    -0.03  -0.02  -0.04     0.03  -0.03  -0.01
     2   6     0.02  -0.01  -0.05    -0.02   0.01  -0.05     0.01   0.00  -0.03
     3   6     0.02  -0.02  -0.06    -0.06   0.03  -0.10     0.05  -0.02  -0.01
     4   6     0.03  -0.03  -0.06    -0.09   0.03  -0.12     0.08  -0.06   0.01
     5   6     0.02  -0.04  -0.05    -0.07   0.01  -0.09     0.08  -0.06   0.02
     6   6     0.01  -0.05  -0.03    -0.02  -0.03  -0.02     0.02  -0.03  -0.01
     7   6    -0.02  -0.02  -0.04    -0.00  -0.06   0.02    -0.03   0.00  -0.03
     8   6    -0.01  -0.05  -0.02    -0.01  -0.06   0.02    -0.02  -0.02  -0.02
     9   6     0.02  -0.08  -0.00    -0.02  -0.06  -0.01     0.01  -0.04  -0.00
    10   6     0.03  -0.07  -0.01    -0.02  -0.04  -0.03     0.02  -0.05   0.00
    11   1     0.02  -0.00  -0.05     0.01   0.01  -0.03    -0.02   0.03  -0.05
    12   1     0.03  -0.04  -0.07    -0.12   0.05  -0.16     0.12  -0.08   0.03
    13   1     0.02  -0.06  -0.05    -0.09   0.01  -0.11     0.11  -0.08   0.04
    14   1    -0.05  -0.00  -0.05     0.01  -0.06   0.04    -0.05   0.02  -0.04
    15   1     0.04  -0.10   0.01    -0.03  -0.06  -0.01     0.01  -0.06   0.01
    16   1     0.05  -0.10   0.01    -0.03  -0.03  -0.04     0.04  -0.07   0.01
    17   7     0.02  -0.02  -0.04    -0.00  -0.02  -0.02     0.00   0.00  -0.03
    18   7    -0.01  -0.02  -0.04    -0.00  -0.04   0.00    -0.01  -0.00  -0.02
    19  77     0.00  -0.02  -0.03     0.00  -0.03   0.01    -0.01   0.02  -0.02
    20   8    -0.04   0.01   0.00     0.07   0.02  -0.04     0.03   0.03  -0.05
    21   8     0.01  -0.01  -0.01    -0.03   0.01   0.00     0.04  -0.01   0.04
    22   8     0.04  -0.02   0.01     0.01  -0.04   0.03    -0.03   0.03  -0.05
    23   5    -0.01  -0.01  -0.02    -0.01  -0.02   0.02     0.00   0.01  -0.00
    24   5    -0.01  -0.00  -0.01     0.03   0.01   0.01    -0.01   0.03  -0.02
    25   5     0.02  -0.01   0.00     0.00  -0.02   0.01    -0.02   0.01  -0.02
    26   8     0.01   0.00   0.02     0.00  -0.01  -0.01    -0.01  -0.03   0.01
    27   8     0.00  -0.00  -0.01     0.00   0.03   0.07    -0.05   0.05   0.02
    28   6    -0.02   0.00  -0.00     0.04   0.08   0.06    -0.03   0.07   0.02
    29   6    -0.05   0.02   0.02     0.08   0.05  -0.03     0.02   0.03  -0.04
    30   6     0.05  -0.01   0.03     0.01  -0.02   0.02    -0.04  -0.01  -0.02
    31   6     0.04  -0.00   0.04    -0.00  -0.01  -0.01    -0.01  -0.04   0.02
    32   6    -0.01   0.00  -0.01    -0.03   0.01   0.00     0.04  -0.03   0.07
    33   6    -0.03   0.00  -0.03    -0.02  -0.02   0.04     0.02  -0.00   0.02
    34   8    -0.03  -0.00  -0.03    -0.00  -0.03   0.04    -0.02   0.02  -0.01
    35   6    -0.09   0.03   0.02     0.15   0.11  -0.06     0.08   0.07  -0.06
    36   1    -0.10   0.03   0.03     0.15   0.13  -0.04     0.07   0.08  -0.05
    37   1    -0.11   0.04   0.04     0.18   0.07  -0.12     0.11   0.04  -0.10
    38   1    -0.11   0.01  -0.00     0.17   0.15  -0.05     0.10   0.12  -0.05
    39   6    -0.03   0.05   0.05     0.05  -0.02  -0.06    -0.01  -0.04  -0.06
    40   1     0.00   0.06   0.05     0.00  -0.08  -0.02    -0.05  -0.09  -0.03
    41   1    -0.04   0.06   0.07     0.07  -0.05  -0.14     0.02  -0.07  -0.12
    42   1    -0.04   0.06   0.06     0.06   0.01  -0.04    -0.01  -0.02  -0.04
    43   6    -0.04  -0.02  -0.02     0.06   0.17   0.08    -0.01   0.16   0.03
    44   1    -0.06  -0.02  -0.02     0.09   0.21   0.08    -0.00   0.18   0.03
    45   1    -0.06  -0.03  -0.03     0.10   0.18   0.05     0.03   0.17   0.01
    46   1    -0.02  -0.04  -0.04     0.03   0.19   0.13    -0.05   0.18   0.06
    47   6    -0.00   0.02   0.01    -0.00   0.07   0.11    -0.09   0.06   0.05
    48   1    -0.02   0.02   0.02     0.03   0.11   0.09    -0.07   0.07   0.05
    49   1     0.02   0.00  -0.01    -0.04   0.10   0.17    -0.12   0.09   0.10
    50   1     0.02   0.04   0.02    -0.03   0.01   0.09    -0.11  -0.00   0.05
    51   6    -0.02   0.02   0.01    -0.00   0.01  -0.04    -0.01  -0.05   0.11
    52   1    -0.03   0.02   0.01     0.02  -0.00  -0.03    -0.05  -0.04   0.09
    53   1    -0.00   0.02   0.03    -0.02   0.03  -0.06     0.00  -0.06   0.13
    54   1    -0.03   0.03   0.02    -0.00   0.02  -0.05    -0.01  -0.06   0.14
    55   6    -0.00  -0.01  -0.01    -0.07   0.04   0.00     0.10  -0.04   0.09
    56   1    -0.01   0.00  -0.01    -0.07   0.04   0.00     0.10  -0.05   0.11
    57   1     0.01  -0.01   0.01    -0.08   0.06  -0.03     0.11  -0.05   0.12
    58   1     0.01  -0.02  -0.03    -0.10   0.04   0.03     0.14  -0.02   0.06
    59   6    -0.05   0.02  -0.03    -0.00  -0.04   0.04    -0.02  -0.02   0.05
    60   1    -0.05   0.03  -0.02     0.01  -0.05   0.02    -0.06  -0.03   0.07
    61   1    -0.06   0.03  -0.03    -0.01  -0.03   0.04     0.01  -0.04   0.08
    62   1    -0.07   0.02  -0.05     0.01  -0.05   0.07    -0.03  -0.00   0.02
    63   6    -0.03  -0.01  -0.06    -0.05  -0.01   0.08     0.07   0.01  -0.01
    64   1    -0.04  -0.01  -0.07    -0.04  -0.03   0.11     0.05   0.04  -0.04
    65   1    -0.03  -0.01  -0.06    -0.07   0.00   0.09     0.10  -0.00   0.01
    66   1    -0.01  -0.03  -0.06    -0.06   0.01   0.08     0.10   0.02  -0.02
    67   6     0.03   0.01   0.07     0.01   0.02  -0.03    -0.03  -0.08   0.05
    68   1     0.02   0.02   0.07     0.04   0.03  -0.03    -0.07  -0.12   0.03
    69   1     0.05   0.01   0.08     0.01   0.02  -0.04    -0.03  -0.07   0.04
    70   1     0.02   0.02   0.07     0.00   0.03  -0.05    -0.02  -0.10   0.10
    71   6     0.05  -0.01   0.04    -0.04  -0.02  -0.03     0.05  -0.02   0.04
    72   1     0.07  -0.01   0.05    -0.04  -0.02  -0.03     0.05  -0.02   0.05
    73   1     0.06  -0.02   0.02    -0.05  -0.04  -0.01     0.07   0.02   0.02
    74   1     0.04  -0.00   0.04    -0.04  -0.01  -0.05     0.07  -0.04   0.07
    75   6     0.08  -0.02   0.04    -0.00  -0.04   0.03    -0.02   0.01  -0.03
    76   1     0.08  -0.01   0.06    -0.00  -0.03   0.02    -0.02  -0.01  -0.01
    77   1     0.08  -0.02   0.03     0.01  -0.05   0.05    -0.04   0.04  -0.06
    78   1     0.08  -0.03   0.03    -0.02  -0.06   0.02     0.03   0.03  -0.03
    79   6     0.04   0.00   0.04     0.04  -0.01   0.03    -0.10  -0.03  -0.03
    80   1     0.02   0.01   0.04     0.04   0.00   0.03    -0.12  -0.04  -0.03
    81   1     0.05  -0.01   0.04     0.05  -0.03   0.04    -0.12  -0.00  -0.07
    82   1     0.04   0.00   0.06     0.05   0.01   0.03    -0.11  -0.05  -0.01
    83   1     0.02  -0.02  -0.02     0.02  -0.02   0.01    -0.00   0.04  -0.02
    84   6     0.01   0.08   0.07     0.00   0.02  -0.01    -0.01  -0.02   0.02
    85   8     0.07   0.13   0.05     0.00   0.00   0.00     0.01  -0.02   0.02
    86   6    -0.02   0.11   0.14    -0.01   0.06  -0.03    -0.00  -0.05   0.05
    87   6     0.01  -0.01  -0.03     0.01  -0.02   0.01    -0.02   0.02  -0.01
    88   7    -0.02   0.01   0.04     0.01   0.00   0.00    -0.02   0.01   0.00
    89   6    -0.10  -0.03   0.06     0.00   0.02  -0.00    -0.03   0.02  -0.00
    90   6    -0.05   0.13   0.19    -0.05   0.06  -0.04     0.05  -0.06   0.03
    91   1    -0.06   0.07   0.14     0.01   0.06  -0.03    -0.03  -0.03   0.05
    92   6     0.02   0.15   0.15     0.01   0.09  -0.04    -0.02  -0.09   0.10
    93   1    -0.02   0.16   0.18    -0.06   0.06  -0.04     0.07  -0.08   0.03
    94   1    -0.08   0.10   0.18    -0.07   0.04  -0.04     0.06  -0.03   0.00
    95   1    -0.07   0.14   0.22    -0.06   0.09  -0.05     0.06  -0.09   0.05
    96   1    -0.01  -0.06  -0.07     0.02  -0.01   0.02    -0.03   0.02  -0.01
    97   1     0.06   0.02  -0.05     0.01  -0.02   0.02    -0.01   0.02  -0.01
    98   1    -0.10  -0.03   0.01    -0.00   0.01  -0.01    -0.03   0.02  -0.01
    99   1    -0.16  -0.06   0.04     0.00   0.03   0.00    -0.03   0.03   0.00
   100   1    -0.10  -0.04   0.13    -0.00   0.02  -0.01    -0.03   0.02  -0.00
   101   1     0.06   0.19   0.15    -0.00   0.08  -0.04     0.01  -0.11   0.10
   102   1    -0.00   0.17   0.19     0.01   0.12  -0.06    -0.02  -0.11   0.11
   103   1     0.04   0.14   0.11     0.05   0.09  -0.03    -0.06  -0.08   0.11
   104   1    -0.02  -0.05  -0.02    -0.00  -0.07   0.03    -0.04  -0.01  -0.02
   105   1     0.03  -0.01  -0.07    -0.07   0.05  -0.12     0.05  -0.02  -0.01
                      4                      5                      6
                      A                      A                      A
 Frequencies --     34.6131                38.7063                41.5847
 Red. masses --      3.8923                 3.6205                 3.6980
 Frc consts  --      0.0027                 0.0032                 0.0038
 IR Inten    --      0.1296                 0.0509                 0.4715
  Atom AN      X      Y      Z        X      Y      Z        X      Y      Z
     1   6     0.01  -0.01   0.02     0.03  -0.01  -0.00     0.01  -0.01  -0.01
     2   6     0.04  -0.06   0.06     0.01   0.01  -0.02    -0.00  -0.00  -0.01
     3   6     0.08  -0.08   0.10     0.04  -0.01  -0.00     0.02  -0.02  -0.00
     4   6     0.08  -0.06   0.10     0.06  -0.03   0.02     0.03  -0.03   0.01
     5   6     0.04  -0.03   0.06     0.06  -0.03   0.01     0.02  -0.02   0.01
     6   6    -0.03   0.02  -0.02     0.02  -0.01  -0.01    -0.01  -0.01  -0.01
     7   6    -0.05   0.04  -0.04    -0.01   0.01  -0.02    -0.04   0.01  -0.02
     8   6    -0.08   0.07  -0.07    -0.00  -0.00  -0.01    -0.04   0.01  -0.03
     9   6    -0.09   0.08  -0.08     0.02  -0.02  -0.00    -0.03  -0.01  -0.02
    10   6    -0.06   0.05  -0.05     0.03  -0.02   0.00    -0.01  -0.01  -0.01
    11   1     0.04  -0.06   0.05    -0.01   0.02  -0.04    -0.01   0.00  -0.02
    12   1     0.11  -0.08   0.13     0.09  -0.05   0.03     0.04  -0.04   0.02
    13   1     0.05  -0.02   0.06     0.08  -0.05   0.03     0.03  -0.03   0.01
    14   1    -0.04   0.03  -0.03    -0.02   0.02  -0.03    -0.04   0.02  -0.02
    15   1    -0.12   0.10  -0.11     0.02  -0.03   0.01    -0.03  -0.01  -0.02
    16   1    -0.06   0.06  -0.06     0.04  -0.04   0.01     0.00  -0.03  -0.01
    17   7     0.01  -0.02   0.02     0.00   0.01  -0.02    -0.00  -0.00  -0.01
    18   7    -0.02   0.02  -0.02     0.00   0.01  -0.02    -0.02   0.00  -0.02
    19  77     0.00  -0.01   0.00     0.00   0.01  -0.01    -0.01   0.01  -0.01
    20   8     0.03  -0.03  -0.01    -0.01  -0.01  -0.00    -0.04   0.06   0.01
    21   8    -0.01   0.01   0.01    -0.04   0.05  -0.04    -0.01   0.02   0.01
    22   8     0.01   0.01  -0.02    -0.00  -0.03   0.04    -0.04  -0.01   0.00
    23   5     0.00  -0.00   0.01     0.01   0.01  -0.00    -0.01   0.01   0.01
    24   5    -0.00  -0.01  -0.00    -0.01   0.00  -0.01     0.01   0.03  -0.00
    25   5     0.01   0.01  -0.01     0.00  -0.00   0.00    -0.02  -0.00  -0.01
    26   8     0.01   0.01  -0.01     0.00   0.02  -0.03    -0.01  -0.01  -0.03
    27   8    -0.03  -0.01   0.00    -0.04   0.01  -0.00     0.07   0.02  -0.02
    28   6    -0.02  -0.01   0.00    -0.08   0.01   0.01     0.08   0.02  -0.02
    29   6     0.02  -0.05  -0.02    -0.05  -0.01   0.02     0.01   0.08   0.00
    30   6     0.01   0.02  -0.03    -0.00  -0.02   0.04    -0.05  -0.03   0.01
    31   6     0.00   0.03  -0.03    -0.01  -0.01  -0.02    -0.03  -0.04  -0.01
    32   6    -0.01   0.01   0.02    -0.02   0.03  -0.05     0.01  -0.02   0.04
    33   6    -0.00  -0.01   0.04     0.03  -0.01   0.05     0.04  -0.03   0.07
    34   8     0.01  -0.02   0.03     0.06  -0.03   0.04     0.01  -0.02   0.03
    35   6     0.08  -0.04  -0.02    -0.07  -0.00   0.02    -0.05   0.07   0.01
    36   1     0.07  -0.06  -0.03    -0.11  -0.01   0.03    -0.02   0.08   0.01
    37   1     0.10  -0.07  -0.04    -0.05  -0.02   0.03    -0.11   0.11   0.03
    38   1     0.10  -0.01  -0.00    -0.07   0.02  -0.01    -0.08   0.00   0.01
    39   6     0.00  -0.10  -0.05    -0.05  -0.04   0.06     0.03   0.18   0.01
    40   1    -0.04  -0.12  -0.03    -0.03  -0.03   0.05     0.08   0.23  -0.02
    41   1     0.02  -0.12  -0.08    -0.03  -0.05   0.07    -0.01   0.22   0.07
    42   1    -0.00  -0.10  -0.05    -0.08  -0.05   0.07     0.05   0.18  -0.01
    43   6    -0.01   0.04   0.01    -0.09   0.04  -0.02     0.08  -0.08  -0.02
    44   1    -0.00   0.05   0.01    -0.12   0.04  -0.01     0.08  -0.07  -0.02
    45   1     0.03   0.06  -0.00    -0.07   0.05  -0.03     0.01  -0.11  -0.00
    46   1    -0.04   0.07   0.02    -0.10   0.05  -0.03     0.13  -0.13  -0.02
    47   6    -0.07  -0.03   0.01    -0.11  -0.00   0.03     0.17   0.06  -0.06
    48   1    -0.06  -0.03   0.01    -0.13  -0.00   0.04     0.17   0.06  -0.06
    49   1    -0.10  -0.01   0.03    -0.12   0.01   0.02     0.23   0.01  -0.08
    50   1    -0.08  -0.07   0.01    -0.10  -0.02   0.05     0.19   0.13  -0.06
    51   6     0.00   0.00  -0.00     0.04   0.01  -0.14     0.01  -0.06   0.01
    52   1     0.02  -0.01  -0.01     0.10  -0.03  -0.14    -0.00  -0.08  -0.01
    53   1     0.00   0.02  -0.02     0.01   0.04  -0.20    -0.01  -0.05  -0.02
    54   1     0.00   0.00   0.00     0.06   0.00  -0.16     0.03  -0.09   0.02
    55   6    -0.02   0.03   0.03    -0.09   0.08  -0.05     0.02   0.01   0.06
    56   1    -0.02   0.03   0.04    -0.07   0.07  -0.05     0.04  -0.02   0.09
    57   1    -0.03   0.04   0.01    -0.13   0.11  -0.12     0.00   0.02   0.04
    58   1    -0.03   0.04   0.04    -0.14   0.10   0.02     0.02   0.05   0.08
[...]
 137,-0.00000005,-0.00000099,0.00000010,0.00000224,0.00000366,-0.000006
 87,-0.00000425,-0.00000176,0.00000198,0.00000030,-0.00000103,0.0000028
 0,0.00000092,0.00000402,-0.00000316,0.00000087,0.00003155,0.00001520,-
 0.00002081,0.00002502,0.00000079,-0.00002751,0.00000849,0.00002697,0.0
 0001339,0.00000267,-0.00001099,0.00000434,0.00003295,-0.00008633,0.000
 09810,-0.00005800,0.00001765,-0.00000099,0.00000192,0.00000502,0.00001
 753,-0.00000467,-0.00000057,0.00001537,-0.00000056,0.00000449,-0.00000
 372,0.00000244,-0.00000028,-0.00000205,0.00001195,-0.00000250,-0.00000
 268,-0.00000013,0.00000354,0.00000272,-0.00000505,-0.00000116,-0.00000
 637,0.00000276,0.00001045,-0.00000783,-0.00001509,0.00002557,0.0000069
 4,-0.00000146,-0.00000025,0.00000264,-0.00000159,0.00000363,-0.0000068
 3,0.00000005,-0.00000197,0.00000041,0.00000299,-0.00000390,0.00000060,
 -0.00000399,-0.00000136,-0.00000057,0.00000045,0.00000398,-0.00000193,
 0.03833496,0.24394300,-0.00058150,0.00035084,-0.00038092,0.00000254,0.
 00006525,0.00004524,-0.00004717,-0.00002715,0.00001578,-0.00001869,-0.
 00002737,-0.00004751,0.00002693,0.00001483,0.00002189,0.00095376,0.001
 15098,-0.00041623,-0.00661440,-0.01945988,-0.00908131,-0.01072711,-0.1
 4069149,-0.14844574,0.00113462,0.00629619,0.00705620,0.00347486,-0.000
 73239,0.00302860,0.00000180,0.00000294,-0.00000344,-0.00000508,-0.0000
 0186,-0.00000382,0.00003351,-0.00001893,0.00002908,-0.00151230,0.00122
 937,-0.00061597,-0.00179969,0.00098246,-0.00097847,0.00015197,0.000332
 34,0.00029362,0.00010054,-0.00006661,-0.00008502,0.00620965,-0.0029583
 8,-0.00105750,-0.00038493,-0.00028215,0.00046381,0.00004733,0.00007095
 ,0.00009619,0.00006066,0.00014306,0.00005122,0.00006378,-0.00008874,-0
 .00002244,-0.00016617,-0.00035282,-0.00007517,-0.00030208,0.00006065,-
 0.00006086,-0.00016840,0.00016743,-0.00011687,0.00010269,-0.00002534,0
 .00000227,0.00007093,-0.00003199,0.00003706,-0.00002424,0.00000292,-0.
 00003751,0.00000722,-0.00000822,0.00000145,-0.00004298,0.00001138,0.00
 001375,-0.00002035,0.00001338,0.00002731,-0.00000373,-0.00004704,-0.00
 004738,0.00001289,-0.00007705,-0.00000529,0.00007404,0.00033349,0.0001
 4180,-0.00001854,0.00000362,-0.00000387,-0.00000451,0.00000890,0.00000
 156,0.00001616,0.00000045,0.00000099,0.00000505,-0.00002035,0.00000586
 ,-0.00000154,-0.00000516,0.00000094,-0.00000149,0.00000163,0.00000006,
 0.00000365,0.00000245,-0.00000010,0.00000166,-0.00000019,0.00000064,0.
 00001865,-0.00001696,0.00001373,-0.00000588,0.00000380,-0.00000013,0.0
 0000286,-0.00000592,0.00000998,0.00000182,0.00000257,-0.00000117,0.000
 00461,0.00000363,0.00000586,0.00000056,-0.00000258,0.00000298,-0.00000
 079,0.00000163,-0.00000054,0.00000043,-0.00000068,-0.00000222,-0.00000
 244,0.00001219,0.00001089,0.00000001,-0.00000871,-0.00000403,-0.000010
 84,0.00000436,0.00000666,0.00000904,0.00000290,0.00000159,0.00000115,0
 .00000995,0.00000745,0.00000751,0.00000514,-0.00000224,-0.00000733,0.0
 0000275,0.00000366,0.00000042,-0.00000231,-0.00000636,0.00002711,-0.00
 002816,-0.00003143,0.00000700,-0.00000050,-0.00000177,-0.00001323,0.00
 000520,0.00002175,-0.00000270,0.00004367,0.00001737,0.00003823,-0.0000
 1079,-0.00003159,-0.00001532,0.00002496,0.00000171,-0.00001294,0.00000
 703,0.00000436,-0.00000142,-0.00000132,0.00001061,0.00000018,-0.000003
 59,-0.00000369,-0.00000089,0.00000012,0.00000018,0.00000328,-0.0000014
 1,-0.00000061,0.00000305,0.00000185,0.00000088,-0.00000439,-0.00000323
 ,-0.00000852,0.00000410,-0.00000050,-0.00000272,-0.00000119,-0.0000017
 4,0.00000653,0.00000356,0.00000067,0.00000121,0.00000417,-0.00000141,-
 0.00000053,0.00000286,-0.00000240,-0.00000218,-0.00000120,-0.00000028,
 0.00000035,-0.00000126,0.00000131,0.00000058,0.00001135,-0.00000251,-0
 .00000224,-0.00000295,0.00000084,-0.00000079,-0.00000052,0.00000112,-0
 .00000018,0.00000401,-0.00000485,0.00000176,0.00014963,0.00000155,-0.0
 0021918,0.00009209,-0.00007255,-0.00011794,-0.00012996,0.00020231,-0.0
 0001739,0.00000380,-0.00001433,0.00001751,0.00003054,0.00007543,-0.000
 01445,-0.00007604,0.00003994,0.00005754,0.00000367,-0.00001532,-0.0000
 0396,-0.00000501,-0.00000188,-0.00000021,0.00000233,0.00000397,0.00000
 419,0.00000110,-0.00000440,-0.00000529,0.00000429,-0.00000205,-0.00000
 368,-0.00000272,0.00000682,0.00000600,-0.00000193,0.00000011,-0.000000
 81,-0.00001333,-0.00000940,-0.00002860,-0.00001789,-0.00003978,-0.0000
 3897,-0.00000014,0.00000529,0.00000857,-0.00000191,0.00000504,0.000002
 27,0.00000194,-0.00000018,0.00000163,-0.00000483,-0.00001015,0.0000036
 8,0.00000063,0.00000531,0.00000441,-0.00000319,0.00000615,-0.00000961,
 0.00976860,0.15347716,0.15046407,-0.00132637,-0.00038163,0.00095679,0.
 00412122,-0.01115132,-0.01491741,-0.04599876,-0.00247292,0.01418629,0.
 00326210,0.01520649,0.01198475,0.00178013,-0.00288084,0.00539187,-0.00
 063916,0.00050768,-0.00066580,-0.00002028,0.00007712,0.00005501,0.0000
 5152,0.00004022,-0.00005086,-0.00001941,-0.00005326,-0.00006982,-0.000
 01507,0.00004603,0.00009412,-0.00116371,0.00157997,-0.00127501,-0.0014
 5514,0.00126721,-0.00207718,0.00021728,0.00066628,0.00069091,-0.000005
 62,-0.00000661,0.00001010,-0.00000452,0.00000219,-0.00000299,0.0000687
 4,-0.00003828,0.00001448,0.00194649,-0.00674292,0.00268562,-0.00002530
 ,-0.00011161,0.00003892,0.00022445,0.00046071,-0.00022929,-0.00002398,
 0.00004218,-0.00004631,-0.00008020,-0.00006463,0.00001190,-0.00016058,
 0.00023361,0.00014639,0.00004597,0.00003138,0.00002786,-0.00001188,-0.
 00014406,0.00005009,0.00013544,-0.00021425,-0.00011308,-0.00005145,0.0
 0009716,0.00006480,-0.00001797,0.00005899,-0.00000655,0.00000326,-0.00
 001413,0.00000280,0.00001317,-0.00002160,0.00000440,0.00004480,-0.0001
 0618,-0.00001261,-0.00002519,-0.00004766,-0.00003591,0.00001889,0.0000
 0684,0.00001704,0.00001069,0.00001144,-0.00001123,-0.00004192,-0.00006
 672,-0.00001566,-0.00000423,0.00000561,-0.00000246,-0.00000085,-0.0000
 0107,-0.00000310,0.00000239,0.00000092,0.00000019,-0.00000120,-0.00000
 057,0.00000188,-0.00000152,-0.00000061,-0.00000832,-0.00000104,-0.0000
 0102,0.00000281,0.00000190,0.00000240,0.00000123,-0.00000290,0.0000006
 5,-0.00000027,-0.00000674,-0.00000384,-0.00000526,0.00000147,0.0000007
 3,0.00000031,-0.00000172,0.00000264,0.00000220,0.00000259,0.00000357,0
 .00000051,0.00000396,-0.00000494,-0.00000168,-0.00000010,0.00000496,0.
 00000441,0.00000477,0.00000430,-0.00000734,-0.00000918,-0.00000159,-0.
 00000166,-0.00000059,-0.00000617,-0.00000561,0.00000351,-0.00000083,0.
 00000009,-0.00000446,0.00000127,0.00000404,-0.00000353,0.00000161,-0.0
 0000134,-0.00000294,-0.00000373,-0.00000635,-0.00000210,-0.00000235,0.
 00000234,-0.00000237,0.00000082,0.00000218,0.00000030,0.00000072,-0.00
 000125,-0.00000241,-0.00000386,0.00000438,-0.00000048,0.00000084,-0.00
 000109,-0.00000153,-0.00000244,-0.00000231,0.00000016,-0.00000030,-0.0
 0000034,-0.00000484,-0.00000239,0.00000223,-0.00000001,0.00000067,0.00
 000042,0.00000041,-0.00000315,0.00000067,0.00000029,0.00000088,-0.0000
 0186,-0.00000123,0.00000768,0.00000680,-0.00000370,-0.00000395,-0.0000
 0659,-0.00000776,-0.00000037,0.00000178,0.00000642,0.00000743,-0.00000
 096,0.00000668,0.00001621,0.00000904,-0.00000720,-0.00000121,0.0000044
 1,0.00000039,-0.00000772,-0.00000376,0.00000819,0.00000746,-0.00000040
 ,-0.00004084,-0.00006086,-0.00001211,0.00002205,0.00001775,0.00000954,
 0.00000304,0.00004910,0.00002077,0.00000068,0.00000479,-0.00000116,-0.
 00006973,-0.00005827,-0.00001056,0.00001595,0.00000812,0.00000885,0.00
 000227,0.00004558,-0.00000759,0.00001600,0.00001785,-0.00000414,0.0000
 0735,0.00000867,0.00002071,0.00000172,0.00002265,0.00006326,-0.0000197
 7,-0.00001326,-0.00005104,-0.00001135,-0.00000662,-0.00000944,0.000079
 89,0.00007986,-0.00000298,0.00001642,-0.00008390,0.00002444,0.00004979
 ,0.00001197,-0.00002283,-0.00002129,0.00000779,-0.00001051,0.00000056,
 0.00000852,-0.00000761,-0.00000007,-0.00000106,0.00000277,0.00001881,-
 0.00002420,-0.00002060,0.00003934,0.00002222,0.00005511,-0.00003535,0.
 00001551,-0.00000072,-0.00002000,0.00001046,-0.00000365,-0.00001029,0.
 00000486,-0.00000695,-0.00002090,0.00000537,-0.00001151,-0.00001432,0.
 00000341,0.00000203,-0.00000456,-0.00000065,0.00000674,0.00000193,-0.0
 0000021,-0.00000221,-0.00000384,0.00000097,-0.00000050,0.00000130,-0.0
 0000363,0.00000056,0.00002591,-0.00001396,0.00001633,0.03914291,-0.000
 84137,-0.00012074,0.00141650,0.00512118,-0.01218474,-0.01824315,-0.002
 66005,-0.20311360,-0.14724544,-0.00063165,0.00554221,0.00388298,-0.002
 68099,0.00260956,-0.00047390,0.00055539,-0.00027854,0.00028951,0.00003
 340,-0.00000605,-0.00002176,-0.00001754,-0.00002647,0.00001803,0.00004
 995,0.00002928,0.00000364,-0.00004609,-0.00007920,-0.00006798,0.001106
 74,-0.00012963,0.00108111,0.00160967,-0.00038265,0.00068682,-0.0001703
 3,0.00024172,0.00025533,-0.00000434,0.00000239,0.00000034,0.00000570,-
 0.00000667,-0.00000535,-0.00001839,0.00003136,-0.00002357,-0.00593064,
 -0.00213403,-0.00127881,-0.00006412,0.00000464,-0.00000759,0.00052078,
 0.00042147,-0.00013552,-0.00004694,0.00002010,-0.00005141,-0.00015855,
 -0.00015279,0.00002937,0.00000518,0.00022631,0.00014717,0.00003753,0.0
 0015167,0.00002125,0.00012502,-0.00004398,0.00009128,0.00023460,-0.000
 28442,-0.00018443,-0.00007229,0.00009551,0.00007646,-0.00005464,0.0000
 4223,-0.00005645,0.00000751,-0.00000095,0.00002879,0.00002178,-0.00001
 789,0.00001769,0.00000739,-0.00002098,-0.00002873,0.00001491,-0.000047
 77,-0.00004567,0.00003926,0.00002741,0.00003382,0.00002688,0.00004714,
 -0.00002531,-0.00008807,-0.00016518,-0.00002357,-0.00000429,0.00000126
 ,-0.00000229,-0.00000078,0.00000158,-0.00000331,-0.00000021,-0.0000022
 0,0.00000051,-0.00000074,0.00000111,0.00000280,-0.00000403,-0.00000151
 ,-0.00000676,0.00000169,0.00000018,0.00000072,0.00000036,-0.00000138,0
 .00000142,-0.00000332,0.00000298,-0.00000112,0.00000104,-0.00000017,-0
 .00000112,-0.00000218,0.00000060,-0.00000400,-0.00000032,0.00000385,0.
 00000372,0.,-0.00000389,0.00000303,0.00000402,-0.00000051,-0.00000618,
 -0.00000256,0.00000303,-0.00000153,0.00000146,0.00000056,-0.00000037,-
 0.00000515,0.00000054,0.00000052,-0.00000254,-0.00000986,-0.00000726,0
 .00000407,-0.00000044,0.00000270,-0.00000269,0.00000290,0.00000381,-0.
 00000780,-0.00000134,-0.00000379,-0.00000827,-0.00000689,-0.00001013,-
 0.00000501,-0.00000658,0.00000329,-0.00000348,0.00000265,0.00000302,0.
 00000297,-0.00000038,-0.00000036,-0.00000400,-0.00000940,0.00000597,0.
 00000161,0.00000161,0.00000052,-0.00000547,-0.00000596,-0.00000268,0.0
 0000176,0.00000048,-0.00000259,-0.00000774,-0.00000901,0.00000320,0.00
 000085,0.00000147,-0.00000187,-0.00000100,-0.00000877,0.00000292,-0.00
 000114,0.00000470,-0.00000233,-0.00000167,0.00001011,0.00000630,0.0000
 0039,-0.00000376,-0.00000065,-0.00000742,0.00000255,0.00000198,0.00000
 648,0.00000189,-0.00000048,-0.00000233,0.00000861,0.00000879,-0.000008
 52,0.00000170,0.00000674,0.00000185,-0.00000794,-0.00000590,0.00000825
 ,0.00000361,-0.00000035,-0.00001325,-0.00002825,-0.00000430,0.00001715
 ,0.00001035,0.00000957,-0.00001161,0.00004006,0.00000172,-0.00001106,-
 0.00001346,0.00000626,-0.00001984,-0.00001617,0.00000328,0.00000979,0.
 00000099,0.00001006,-0.00000213,0.00001592,-0.00001360,0.00000616,0.00
 000774,-0.00000084,-0.00002137,0.00000446,0.00001735,-0.00005310,0.000
 00622,-0.00004580,0.00004033,0.00000696,0.00006571,0.00000019,0.000013
 74,-0.00001262,-0.00009366,-0.00001566,-0.00003138,0.00004128,0.000024
 39,0.00007230,-0.00003296,-0.00007593,-0.00007971,0.00006209,-0.000028
 52,0.00001043,0.00000446,-0.00000983,0.00001564,0.00000515,0.00000666,
 0.00000344,-0.00002269,0.00002191,0.00002532,-0.00005513,-0.00000671,-
 0.00005690,0.00003100,-0.00000716,-0.00000423,0.00001049,-0.00001188,0
 .00000679,0.00001247,-0.00000115,0.00001763,-0.00002699,-0.00002255,-0
 .00002974,0.00001675,0.00000288,0.00001424,0.00005382,0.00000650,-0.00
 001900,-0.00000551,0.00000035,0.00000368,0.00000709,-0.00000083,-0.000
 00025,-0.00000330,0.00000288,-0.00000127,-0.00001167,0.00000784,-0.000
 01724,0.00408503,0.20978351,0.00047245,0.00092767,-0.00023691,-0.00025
 950,0.00457208,0.00504011,0.01364597,-0.14732018,-0.18577059,-0.001926
 61,-0.01865799,-0.01162612,0.00563596,-0.00005550,-0.00075810,-0.00059
 331,0.00036329,-0.00030462,-0.00003802,0.00002860,0.00003388,0.0000130
 0,0.00000621,-0.00004011,-0.00006253,-0.00002309,0.00001477,0.00008727
 ,0.00002248,-0.00000597,-0.00123963,0.00055003,-0.00082082,-0.00180225
 ,0.00114803,-0.00012169,-0.00006703,-0.00097264,-0.00052863,0.00000897
 ,-0.00000027,-0.00000583,-0.00000066,0.00000054,-0.00000626,-0.0000329
 7,-0.00001891,0.00006611,0.00333373,-0.00039467,0.00333237,0.00001346,
 -0.00011617,-0.00003977,-0.00020537,0.00001313,-0.00003202,-0.00004130
 ,0.00003433,-0.00005814,-0.00005291,-0.00003582,0.00001289,-0.00016984
 ,0.00013523,0.00003403,0.00010752,0.00007116,-0.00000642,0.00003618,-0
 .00008338,0.00008767,0.00011019,-0.00007938,-0.00005135,-0.00007935,0.
 00004338,0.00002985,-0.00003480,0.00007333,-0.00003327,0.00002705,-0.0
 0002219,0.00000634,0.00001389,-0.00002223,0.00001661,0.00007206,-0.000
 10416,0.00002155,-0.00000428,-0.00002502,-0.00003262,0.00001766,0.0000
 1296,0.00000912,0.00001605,0.00002199,-0.00000836,-0.00003851,-0.00005
 353,-0.00000234,0.00000055,0.00000261,-0.00000354,-0.00000158,0.000000
 76,-0.00000417,0.00000032,-0.00000022,0.00000116,-0.00000149,0.0000011
 4,0.00000361,-0.00000172,0.00000076,-0.00000447,-0.00000019,-0.0000025
 7,0.00000363,0.00000063,0.00000165,0.00000167,-0.00000474,0.00000180,-
 0.00000339,-0.00000533,0.00000412,-0.00000396,-0.00000411,-0.00000130,
 -0.00000448,0.00000246,0.00001041,0.00000489,0.00000936,-0.00001086,0.
 00000445,-0.00000877,-0.00000693,0.00000331,0.00000037,0.00000577,0.00
 000148,0.00001017,0.00000273,-0.00000960,-0.00001099,-0.00000120,0.000
 00111,-0.00000219,-0.00000244,-0.00000271,0.00000186,-0.00000042,0.000
 00065,-0.00000111,0.00000154,0.00000241,-0.00000267,-0.00000107,-0.000
 00162,-0.00000251,-0.00000128,-0.00000087,-0.00000126,-0.00000217,-0.0
 0000019,-0.00000103,0.00000108,0.00000178,0.00000056,0.00000082,-0.000
 00085,-0.00000190,-0.00000376,0.00000100,0.00000060,0.00000073,-0.0000
 0045,-0.00000234,-0.00000252,-0.00000020,0.00000063,0.00000130,-0.0000
 0030,-0.00000183,-0.00000331,0.00000201,-0.00000012,0.00000209,0.00000
 034,-0.00000167,-0.00000351,0.00000097,0.00000025,0.00000041,-0.000002
 22,-0.00000324,-0.00000062,0.00000520,-0.00000225,-0.00000199,-0.00000
 748,-0.00000442,0.00000068,0.00000286,0.00000104,0.00000348,-0.0000027
 8,0.00000407,0.00001102,0.00000844,-0.00000281,0.00000013,0.00000360,-
 0.00000088,0.00000032,-0.00000406,0.00000251,0.00000287,-0.00000333,-0
 .00001794,-0.00000173,-0.00000670,-0.00000454,0.00000317,0.00000236,0.
 00000483,-0.00000401,0.00002106,0.00000844,0.00001198,-0.00000994,-0.0
 0005396,-0.00004110,-0.00002539,0.00000524,-0.00000003,-0.00000079,-0.
 00000730,0.00002271,0.00001411,0.00000754,0.00001615,-0.00000364,-0.00
 000307,0.00000865,0.00002194,-0.00002571,0.00000326,0.00001872,0.00001
 121,-0.00001138,0.00000363,0.00000978,0.00000856,0.00000373,0.00002885
 ,0.00010102,-0.00002116,0.00005455,-0.00003035,0.00002100,0.00000331,-
 0.00000420,-0.00002718,-0.00000838,-0.00000292,0.00000169,-0.00000070,
 -0.00000448,0.00000311,-0.00000378,-0.00000055,-0.00000012,-0.00001347
 ,0.00001751,0.00001124,0.00001408,-0.00000854,-0.00001827,0.00001302,-
 0.00000621,0.00000634,-0.00000804,0.00000113,0.00000793,-0.00000145,0.
 00000438,-0.00000511,-0.00000779,0.00000468,-0.00000037,-0.00000441,0.
 00000450,0.00000744,0.00000108,0.00000080,0.00000732,-0.00000215,0.000
 00124,-0.00000049,0.00000376,0.00000134,0.00000118,0.00000006,-0.00000
 329,0.00000079,0.00000961,-0.00001876,0.00001321,-0.01693942,0.1598751
 1,0.19174307\\0.00000195,0.00001018,0.00000463,-0.00000546,-0.00000547
 ,0.00000948,-0.00000142,0.00000308,0.00000528,0.00000334,0.00000382,0.
 00000093,0.00000137,-0.00000170,0.00000078,-0.00001108,-0.00000227,0.0
 0000773,-0.00000868,-0.00000438,0.00001130,0.00001023,0.00000878,-0.00
 000573,-0.00000475,0.00000131,0.00000378,0.00000065,0.00000204,0.00000
 413,-0.00000129,-0.00000013,0.00000065,-0.00000555,-0.00000193,0.00000
 680,-0.00000221,0.00000196,0.00000639,0.00000445,0.00000616,-0.0000033
 8,0.00000375,0.00000497,0.00000087,0.00000461,0.00000642,0.00000137,-0
 .00000011,0.00000708,-0.00000482,0.00000574,0.00000811,-0.00000667,0.0
 0002197,-0.00001589,0.00000700,-0.00000335,-0.00000095,-0.00001092,0.0
 0000268,-0.00000303,-0.00000083,0.00000073,0.00000584,0.00000228,-0.00
 000721,0.00000240,-0.00000789,0.00000178,0.00000279,0.00000944,-0.0000
 1782,-0.00001021,0.00000844,0.00000713,0.00000806,-0.00000497,-0.00000
 194,0.00000178,-0.00000147,-0.00000383,-0.00000141,0.00000452,0.000006
 26,0.00000557,0.00000284,-0.00000120,-0.00000388,-0.00000219,0.0000008
 1,-0.00000845,0.00000120,0.00000464,-0.00000240,-0.00000297,-0.0000070
 3,-0.00000694,-0.00000288,0.00000552,0.00000505,0.00000166,0.00000247,
 -0.00000026,0.00000310,0.00000009,0.00000523,-0.00000424,0.00000221,0.
 00000247,-0.00000330,0.00000381,0.00000221,-0.00000075,-0.00000130,-0.
 00000239,-0.00000794,-0.00000112,-0.00000085,0.00000069,0.00000183,0.0
 0000166,-0.00000085,0.00000215,-0.00000044,0.00000041,0.00000687,0.000
 00103,0.00000375,0.00000122,0.00000452,0.00000025,0.00000148,0.0000043
 6,0.00000116,-0.00000120,0.00000182,0.00000204,0.00000372,0.00000030,-
 0.00000240,0.00000056,0.00000269,0.00000137,0.00000008,0.00000325,0.00
 000243,-0.00000355,0.00000185,0.00000502,-0.00000344,0.00000099,-0.000
 00452,0.00000131,-0.00000460,-0.00000347,0.00000195,-0.00000716,-0.000
 00665,0.00000287,-0.00000161,-0.00000471,0.00000348,-0.00000780,-0.000
 01299,0.00000142,-0.00000192,-0.00000499,-0.00000311,-0.00000064,-0.00
 000191,0.00000225,-0.00000322,-0.00000351,0.00001014,0.00000455,-0.000
 00826,0.00000411,-0.00000035,-0.00000301,0.00000060,-0.00000288,-0.000
 00439,0.00000096,0.00000164,-0.00000379,0.00000576,-0.00000113,-0.0000
 0890,0.00000016,-0.00000022,-0.00000261,0.00000115,-0.00000326,-0.0000
 0523,0.00000236,0.00000109,-0.00000085,-0.00000621,0.00000352,-0.00000
 187,-0.00000252,-0.00000558,0.00000172,-0.00000035,-0.00000633,-0.0000
 0369,-0.00000164,-0.00000452,-0.00000281,0.00000141,-0.00000474,-0.000
 00009,-0.00000186,-0.00000523,-0.00000260,-0.00000481,-0.00000328,-0.0
 0000236,-0.00000250,-0.00000466,-0.00000245,-0.00000255,-0.00000521,0.
 00000067,-0.00000428,-0.00000464,0.00000057,-0.00000304,-0.00000201,0.
 00000238,-0.00000390,-0.00000446,0.00000093,-0.00000363,0.00000427,0.0
 0000531,0.00000050,-0.00000068,0.00000043,-0.00000406,-0.00000294,0.00
 000169,-0.00000069,-0.00000303,0.00000109,-0.00000230,0.00000020,-0.00
 000597,0.00000542,-0.00000685,-0.00001008,0.00000341,0.00000608,0.0000
 0921,0.00000075,0.00000602,0.00000667,0.00000070,0.00000319,0.00000377
 ,-0.00000678,0.00000781,0.00000661,-0.00000613,-0.00000698,0.00000040,
 -0.00000491,-0.00000380,0.00000935,0.00000092,0.00000009,-0.00000237,0
 .00000032,-0.00000099,0.00000231,0.00000021,0.00000350,0.00000028,-0.0
 0000153,0.00000165,0.00000435,-0.00000151,0.00000278,0.00000432,0.0000
 0088,-0.00000008,-0.00000451,-0.00000020,-0.00000187,-0.00000263,-0.00
 000414,-0.00000020,0.00000071,-0.00000124,-0.00000187,0.00000002,-0.00
 000059,0.00000204,0.00000095,0.00000062,0.00000374,0.00000074,-0.00000
 055,0.00000234,0.00000332,0.00000068,0.00000339,0.00000195,0.00000482,
 0.00000396,-0.00000177,-0.00000466,-0.00000193,0.00000571\\\@
 The archive entry for this job was punched.


 YOU WILL NEVER "FIND" TIME FOR ANYTHING.
 IF YOU WANT TIME, YOU MUST MAKE IT.

                        -- CHARLES BIXTON
 Job cpu time:       1 days 18 hours 49 minutes 41.0 seconds.
 Elapsed time:       0 days  2 hours 43 minutes 24.5 seconds.
 File lengths (MBytes):  RWF=   7470 Int=      0 D2E=      0 Chk=     45 Scr=      1
 Normal termination of Gaussian 16 at Sun Dec  8 00:51:30 2024.
