/mnt/lustre/scratch/nvme/SLURM/9663531/usccqdma.K686IdWmsg
OMP_STACKSIZE=0m
GAUSS_PDEF=16
GAUSS_MDEF=65536MB
GAUSS_RDEF=SCF=Direct
 Entering Gaussian System, Link 0=g16.exe
 Initial command:
 /opt/cesga/2020/software/Core/g16/c1/l1.exe "/mnt/lustre/scratch/nvme/SLURM/9663531/usccqdma.K686IdWmsg/Gau-281451.inp" -scrdir="/mnt/lustre/scratch/nvme/SLURM/9663531/usccqdma.K686IdWmsg/"
 Default is to use a total of  16 processors:
                               16 via shared-memory
                                1 via Linda
 Entering Link 1 = /opt/cesga/2020/software/Core/g16/c1/l1.exe PID=    281480.
  
 Copyright (c) 1988-2019, Gaussian, Inc.  All Rights Reserved.
  
 This is part of the Gaussian(R) 16 program.  It is based on
 the Gaussian(R) 09 system (copyright 2009, Gaussian, Inc.),
 the Gaussian(R) 03 system (copyright 2003, Gaussian, Inc.),
 the Gaussian(R) 98 system (copyright 1998, Gaussian, Inc.),
 the Gaussian(R) 94 system (copyright 1995, Gaussian, Inc.),
 the Gaussian 92(TM) system (copyright 1992, Gaussian, Inc.),
 the Gaussian 90(TM) system (copyright 1990, Gaussian, Inc.),
 the Gaussian 88(TM) system (copyright 1988, Gaussian, Inc.),
 the Gaussian 86(TM) system (copyright 1986, Carnegie Mellon
 University), and the Gaussian 82(TM) system (copyright 1983,
 Carnegie Mellon University). Gaussian is a federally registered
 trademark of Gaussian, Inc.
  
 This software contains proprietary and confidential information,
 including trade secrets, belonging to Gaussian, Inc.
  
 This software is provided under written license and may be
 used, copied, transmitted, or stored only in accord with that
 written license.
  
 The following legend is applicable only to US Government
 contracts under FAR:
  
                    RESTRICTED RIGHTS LEGEND
  
 Use, reproduction and disclosure by the US Government is
 subject to restrictions as set forth in subparagraphs (a)
 and (c) of the Commercial Computer Software - Restricted
 Rights clause in FAR 52.227-19.
  
 Gaussian, Inc.
 340 Quinnipiac St., Bldg. 40, Wallingford CT 06492
  
  
 ---------------------------------------------------------------
 Warning -- This program may not be used in any manner that
 competes with the business of Gaussian, Inc. or will provide
 assistance to any competitor of Gaussian, Inc.  The licensee
 of this program is prohibited from giving any competitor of
 Gaussian, Inc. access to this program.  By using this program,
 the user acknowledges that Gaussian, Inc. is engaged in the
 business of creating and licensing software in the field of
 computational chemistry and represents and warrants to the
 licensee that it is not a competitor of Gaussian, Inc. and that
 it will not use this program in any manner prohibited above.
 ---------------------------------------------------------------
  

 Cite this work as:
 Gaussian 16, Revision C.01,
 M. J. Frisch, G. W. Trucks, H. B. Schlegel, G. E. Scuseria, 
 M. A. Robb, J. R. Cheeseman, G. Scalmani, V. Barone, 
 G. A. Petersson, H. Nakatsuji, X. Li, M. Caricato, A. V. Marenich, 
 J. Bloino, B. G. Janesko, R. Gomperts, B. Mennucci, H. P. Hratchian, 
 J. V. Ortiz, A. F. Izmaylov, J. L. Sonnenberg, D. Williams-Young, 
 F. Ding, F. Lipparini, F. Egidi, J. Goings, B. Peng, A. Petrone, 
 T. Henderson, D. Ranasinghe, V. G. Zakrzewski, J. Gao, N. Rega, 
 G. Zheng, W. Liang, M. Hada, M. Ehara, K. Toyota, R. Fukuda, 
 J. Hasegawa, M. Ishida, T. Nakajima, Y. Honda, O. Kitao, H. Nakai, 
 T. Vreven, K. Throssell, J. A. Montgomery, Jr., J. E. Peralta, 
 F. Ogliaro, M. J. Bearpark, J. J. Heyd, E. N. Brothers, K. N. Kudin, 
 V. N. Staroverov, T. A. Keith, R. Kobayashi, J. Normand, 
 K. Raghavachari, A. P. Rendell, J. C. Burant, S. S. Iyengar, 
 J. Tomasi, M. Cossi, J. M. Millam, M. Klene, C. Adamo, R. Cammi, 
 J. W. Ochterski, R. L. Martin, K. Morokuma, O. Farkas, 
 J. B. Foresman, and D. J. Fox, Gaussian, Inc., Wallingford CT, 2019.
 
 ******************************************
 Gaussian 16:  ES64L-G16RevC.01  3-Jul-2019
                 7-Dec-2024 
 ******************************************
 Default route: SCF=Direct
 ----------------------------------------------------
 # m06/genecp scf=tight int=ultrafine 5d freq=noraman
 ----------------------------------------------------
 1/10=4,30=1,38=1/1,3;
 2/12=2,17=6,18=5,40=1/2;
 3/5=7,8=1,11=2,16=1,17=8,25=1,30=1,71=2,74=-54,75=-5,140=1/1,2,3;
 4//1;
 5/5=2,32=2,38=5,98=1/2;
 8/6=4,10=90,11=11/1;
 11/6=1,8=1,9=11,15=111,16=1/1,2,10;
 10/6=1/2;
 6/7=2,8=2,9=2,10=2,28=1/1;
 7/8=1,10=1,25=1/1,2,3,16;
 1/10=4,30=1/3;
 99//99;
 ------
 OPT-TS
 ------
 Symbolic Z-matrix:
 Charge =  0 Multiplicity = 1
 C                     1.96395  -0.3384   -1.32932 
 C                     0.46799  -2.07715  -1.02504 
 C                     1.1679   -2.89091  -1.89915 
 C                     2.30303  -2.39086  -2.52712 
 C                     2.70637  -1.10271  -2.23154 
 C                     2.3897    0.9995   -0.88398 
 C                     2.04648   2.7195    0.62155 
 C                     3.16855   3.40636   0.18418 
 C                     3.90524   2.86318  -0.86224 
 C                     3.51351   1.64819  -1.39969 
 H                    -0.416    -2.43062  -0.4962 
 H                     2.86959  -3.01055  -3.21983 
 H                     3.61237  -0.70568  -2.6803 
 H                     1.41057   3.11863   1.41012 
 H                     4.78437   3.37364  -1.25162 
 H                     4.0896    1.20563  -2.20806 
 N                     0.84354  -0.82314  -0.76365 
 N                     1.65925   1.55405   0.09967 
 Ir                   -0.24066   0.45181   0.67526 
 O                    -3.22058   0.12306  -0.30791 
 O                    -2.38727   2.80791   0.16828 
 O                    -1.80155  -2.1244    1.0148 
 B                    -1.18092   2.20313  -0.13887 
 B                    -1.88608   0.29623  -0.65159 
 B                    -1.60257  -0.837     1.51568 
 O                    -2.22345  -0.69513   2.73645 
 O                    -1.69652   0.01108  -1.99928 
 C                    -2.89372  -0.61401  -2.49492 
 C                    -3.97581  -0.08424  -1.5089 
 C                    -2.37585  -2.92953   2.05663 
 C                    -3.03722  -1.85498   2.97235 
 C                    -2.24438   4.2182   -0.0464 
 C                    -1.1141    4.28193  -1.11319 
 O                    -0.36346   3.094    -0.82946 
 C                    -4.5568    1.26398  -1.9104 
 H                    -5.12509   1.66583  -1.06207 
 H                    -3.76169   1.98367  -2.1382 
 H                    -5.22405   1.18132  -2.77894 
 C                    -5.10717  -1.05506  -1.23302 
 H                    -5.6479   -1.29498  -2.15999 
 H                    -4.74228  -1.99015  -0.7924 
 H                    -5.822    -0.60362  -0.53256 
 C                    -3.09214  -0.20632  -3.94094 
 H                    -3.07673   0.88298  -4.06079 
 H                    -2.28556  -0.62432  -4.5567 
 H                    -4.04725  -0.58931  -4.32829 
 C                    -2.69444  -2.12194  -2.4033 
 H                    -1.78974  -2.39849  -2.96199 
 H                    -2.56821  -2.4459   -1.36026 
 H                    -3.5393   -2.66988  -2.84192 
 C                    -3.5746    4.79518  -0.48643 
 H                    -4.31302   4.6702    0.31566 
 H                    -3.48141   5.86987  -0.70022 
 H                    -3.96226   4.29423  -1.38028 
 C                    -1.8397    4.82097   1.29357 
 H                    -0.87982   4.41198   1.63786 
 H                    -1.76273   5.91573   1.25083 
 H                    -2.59727   4.55315   2.04003 
 C                    -1.6142    4.15691  -2.54546 
 H                    -0.74993   4.03151  -3.20948 
 H                    -2.25038   3.27024  -2.66619 
 H                    -2.17438   5.04447  -2.86861 
 C                    -0.19217   5.48086  -0.99841 
 H                     0.58515   5.42358  -1.77174 
 H                    -0.74664   6.41935  -1.14261 
 H                     0.30677   5.51858  -0.0229 
 C                    -4.4534   -1.49368   2.55051 
 H                    -4.77768  -0.62084   3.13058 
 H                    -4.47999  -1.21376   1.49067 
 H                    -5.16045  -2.31454   2.73248 
 C                    -3.00285  -2.18307   4.45174 
 H                    -1.97631  -2.2903    4.82 
 H                    -3.48096  -1.37456   5.01887 
 H                    -3.55069  -3.11385   4.65885 
 C                    -1.22421  -3.67498   2.71857 
 H                    -0.68094  -4.23534   1.945 
 H                    -0.51374  -2.98176   3.18751 
 H                    -1.57549  -4.38638   3.47789 
 C                    -3.33361  -3.92301   1.43083 
 H                    -4.1009   -3.42253   0.82877 
 H                    -2.77789  -4.60496   0.77299 
 H                    -3.83443  -4.52646   2.20141 
 H                    -0.85432   1.32209   1.88176 
 C                     3.36503  -0.44743   1.9403 
 O                     3.35402  -1.31245   1.06258 
 C                     4.6736    0.19079   2.39445 
 H                     4.63508   1.27573   2.18813 
 H                     4.76272   0.09881   3.48778 
 C                     0.93848  -0.61315   2.18707 
 H                     1.1365   -1.62761   1.817 
 H                     0.37124  -0.69456   3.12536 
 N                     2.22559  -0.01537   2.53929 
 C                     2.17545   0.96963   3.59404 
 H                     1.24225   1.54081   3.49128 
 H                     2.17082   0.50172   4.59218 
 H                     3.01282   1.67323   3.54442 
 C                     5.89329  -0.41044   1.71134 
 H                     6.79648  -0.11487   2.26937 
 H                     5.83107  -1.50727   1.76043 
 C                     6.03997   0.01824   0.26052 
 H                     5.14525  -0.31051  -0.29157 
 H                     6.05233   1.12284   0.20526 
 C                     7.28686  -0.52483  -0.41719 
 H                     8.18202  -0.17629   0.12363 
 H                     7.29538  -1.62367  -0.33914 
 C                     7.36916  -0.11015  -1.87708 
 H                     8.28816  -0.46271  -2.36147 
 H                     6.51977  -0.51561  -2.4468 
 H                     7.33893   0.98548  -1.9776 
 C                     0.6764   -4.26651  -2.21618 
 F                    -0.2539   -4.68161  -1.35421 
 F                     0.13368  -4.30531  -3.4431 
 F                     1.67454  -5.15639  -2.20926 
 H                     3.44196   4.35317   0.64332 
 

 GradGradGradGradGradGradGradGradGradGradGradGradGradGradGradGradGradGrad
 Berny optimization.
 Initialization pass.
 Trust Radius=3.00D-01 FncErr=1.00D-07 GrdErr=1.00D-07 EigMax=2.50D+02 EigMin=1.00D-04
 Number of steps in this run=      2 maximum allowed number of steps=      2.
 GradGradGradGradGradGradGradGradGradGradGradGradGradGradGradGradGradGrad

 Stoichiometry    C37H60B3F3IrN3O7
 Framework group  C1[X(C37H60B3F3IrN3O7)]
 Deg. of freedom   336
 Full point group                 C1      NOp   1
 Largest Abelian subgroup         C1      NOp   1
 Largest concise Abelian subgroup C1      NOp   1
                         Standard orientation:                         
 ---------------------------------------------------------------------
 Center     Atomic      Atomic             Coordinates (Angstroms)
 Number     Number       Type             X           Y           Z
 ---------------------------------------------------------------------
      1          6           0        1.963951   -0.338400   -1.329320
      2          6           0        0.467990   -2.077149   -1.025040
      3          6           0        1.167900   -2.890909   -1.899150
      4          6           0        2.303030   -2.390860   -2.527120
      5          6           0        2.706370   -1.102710   -2.231540
      6          6           0        2.389701    0.999500   -0.883980
      7          6           0        2.046481    2.719500    0.621550
      8          6           0        3.168551    3.406360    0.184180
      9          6           0        3.905241    2.863180   -0.862240
     10          6           0        3.513511    1.648190   -1.399690
     11          1           0       -0.416000   -2.430619   -0.496200
     12          1           0        2.869590   -3.010550   -3.219830
     13          1           0        3.612371   -0.705680   -2.680300
     14          1           0        1.410571    3.118631    1.410120
     15          1           0        4.784371    3.373640   -1.251620
     16          1           0        4.089601    1.205630   -2.208060
     17          7           0        0.843541   -0.823139   -0.763650
     18          7           0        1.659251    1.554050    0.099670
     19         77           0       -0.240659    0.451811    0.675260
     20          8           0       -3.220579    0.123061   -0.307910
     21          8           0       -2.387269    2.807911    0.168280
     22          8           0       -1.801550   -2.124399    1.014800
     23          5           0       -1.180919    2.203131   -0.138870
     24          5           0       -1.886079    0.296231   -0.651590
     25          5           0       -1.602569   -0.836999    1.515680
     26          8           0       -2.223449   -0.695129    2.736450
     27          8           0       -1.696519    0.011081   -1.999280
     28          6           0       -2.893719   -0.614009   -2.494920
     29          6           0       -3.975809   -0.084239   -1.508900
     30          6           0       -2.375850   -2.929529    2.056630
     31          6           0       -3.037220   -1.854979    2.972350
     32          6           0       -2.244379    4.218201   -0.046400
     33          6           0       -1.114099    4.281931   -1.113190
     34          8           0       -0.363459    3.094001   -0.829460
     35          6           0       -4.556799    1.263981   -1.910400
     36          1           0       -5.125089    1.665831   -1.062070
     37          1           0       -3.761689    1.983671   -2.138200
     38          1           0       -5.224049    1.181321   -2.778940
     39          6           0       -5.107170   -1.055059   -1.233020
     40          1           0       -5.647900   -1.294979   -2.159990
     41          1           0       -4.742280   -1.990149   -0.792400
     42          1           0       -5.821999   -0.603619   -0.532560
     43          6           0       -3.092139   -0.206319   -3.940940
     44          1           0       -3.076729    0.882981   -4.060790
     45          1           0       -2.285559   -0.624319   -4.556700
     46          1           0       -4.047249   -0.589309   -4.328290
     47          6           0       -2.694440   -2.121939   -2.403300
     48          1           0       -1.789740   -2.398489   -2.961990
     49          1           0       -2.568210   -2.445899   -1.360260
     50          1           0       -3.539300   -2.669879   -2.841920
     51          6           0       -3.574599    4.795181   -0.486430
     52          1           0       -4.313019    4.670201    0.315660
     53          1           0       -3.481409    5.869871   -0.700220
     54          1           0       -3.962259    4.294231   -1.380280
     55          6           0       -1.839699    4.820971    1.293570
     56          1           0       -0.879819    4.411981    1.637860
     57          1           0       -1.762729    5.915731    1.250830
     58          1           0       -2.597269    4.553151    2.040030
     59          6           0       -1.614199    4.156911   -2.545460
     60          1           0       -0.749929    4.031511   -3.209480
     61          1           0       -2.250379    3.270241   -2.666190
     62          1           0       -2.174379    5.044471   -2.868610
     63          6           0       -0.192169    5.480861   -0.998410
     64          1           0        0.585151    5.423581   -1.771740
     65          1           0       -0.746639    6.419351   -1.142610
     66          1           0        0.306771    5.518581   -0.022900
     67          6           0       -4.453400   -1.493679    2.550510
     68          1           0       -4.777679   -0.620839    3.130580
     69          1           0       -4.479990   -1.213759    1.490670
     70          1           0       -5.160450   -2.314539    2.732480
     71          6           0       -3.002850   -2.183069    4.451740
     72          1           0       -1.976310   -2.290299    4.820000
     73          1           0       -3.480960   -1.374559    5.018870
     74          1           0       -3.550690   -3.113849    4.658850
     75          6           0       -1.224210   -3.674979    2.718570
     76          1           0       -0.680940   -4.235339    1.945000
     77          1           0       -0.513740   -2.981759    3.187510
     78          1           0       -1.575490   -4.386379    3.477890
     79          6           0       -3.333610   -3.923009    1.430830
     80          1           0       -4.100900   -3.422529    0.828770
     81          1           0       -2.777890   -4.604959    0.772990
     82          1           0       -3.834430   -4.526459    2.201410
     83          1           0       -0.854319    1.322091    1.881760
     84          6           0        3.365031   -0.447430    1.940300
     85          8           0        3.354020   -1.312450    1.062580
     86          6           0        4.673601    0.190790    2.394450
     87          1           0        4.635081    1.275730    2.188130
     88          1           0        4.762721    0.098810    3.487780
     89          6           0        0.938481   -0.613149    2.187070
     90          1           0        1.136500   -1.627609    1.817000
     91          1           0        0.371241   -0.694559    3.125360
     92          7           0        2.225591   -0.015370    2.539290
     93          6           0        2.175451    0.969630    3.594040
     94          1           0        1.242251    1.540811    3.491280
     95          1           0        2.170821    0.501720    4.592180
     96          1           0        3.012821    1.673230    3.544420
     97          6           0        5.893291   -0.410440    1.711340
     98          1           0        6.796481   -0.114870    2.269370
     99          1           0        5.831070   -1.507270    1.760430
    100          6           0        6.039971    0.018240    0.260520
    101          1           0        5.145251   -0.310510   -0.291570
    102          1           0        6.052331    1.122840    0.205260
    103          6           0        7.286861   -0.524830   -0.417190
    104          1           0        8.182021   -0.176290    0.123630
    105          1           0        7.295380   -1.623670   -0.339140
    106          6           0        7.369161   -0.110150   -1.877080
    107          1           0        8.288161   -0.462710   -2.361470
    108          1           0        6.519771   -0.515610   -2.446800
    109          1           0        7.338931    0.985480   -1.977600
    110          6           0        0.676400   -4.266509   -2.216180
    111          9           0       -0.253900   -4.681609   -1.354210
    112          9           0        0.133680   -4.305309   -3.443100
    113          9           0        1.674540   -5.156390   -2.209260
    114          1           0        3.441961    4.353170    0.643320
 ---------------------------------------------------------------------
 Rotational constants (GHZ):           0.0596797           0.0488290           0.0396866
 General basis read from cards:  (5D, 7F)
 ======================================================================================================
                                       Pseudopotential Parameters
 ======================================================================================================
  Center     Atomic      Valence      Angular      Power
  Number     Number     Electrons     Momentum     of R      Exponent        Coefficient   SO-Coeffient
 ======================================================================================================
    1          6
                                   No pseudopotential on this center.
    2          6
                                   No pseudopotential on this center.
    3          6
                                   No pseudopotential on this center.
    4          6
                                   No pseudopotential on this center.
    5          6
                                   No pseudopotential on this center.
    6          6
                                   No pseudopotential on this center.
    7          6
                                   No pseudopotential on this center.
    8          6
                                   No pseudopotential on this center.
    9          6
                                   No pseudopotential on this center.
   10          6
                                   No pseudopotential on this center.
   11          1
                                   No pseudopotential on this center.
   12          1
                                   No pseudopotential on this center.
   13          1
                                   No pseudopotential on this center.
   14          1
                                   No pseudopotential on this center.
   15          1
                                   No pseudopotential on this center.
   16          1
                                   No pseudopotential on this center.
   17          7
                                   No pseudopotential on this center.
   18          7
                                   No pseudopotential on this center.
   19         77           17
                                      G and up 
                                                     1      823.5880147       -0.15780140    0.00000000
                                                     2      364.6613336    -1517.52704460    0.00000000
                                                     2       55.7082801     -316.53065290    0.00000000
                                                     2       12.0464544      -91.88809410    0.00000000
                                                     2        3.5120610       -9.22417730    0.00000000
                                      S - G
                                                     0      188.0490770        3.15780140    0.00000000
                                                     1      340.4194712       26.83225770    0.00000000
                                                     2      128.2373673      800.42500070    0.00000000
                                                     2       33.8644961      369.40506830    0.00000000
                                                     2        4.7560005      242.41718990    0.00000000
                                                     2        3.9649974     -118.21732820    0.00000000
                                      P - G
                                                     0      289.7291139        2.15780140    0.00000000
                                                     1       87.4633789       61.96786100    0.00000000
                                                     2       30.4363766      269.05819860    0.00000000
                                                     2        4.0553412      231.16547930    0.00000000
                                                     2        3.5525341     -133.69526670    0.00000000
                                      D - G
                                                     0      136.4017106        3.15780140    0.00000000
                                                     1       95.0776925       45.93498030    0.00000000
                                                     2       49.2258410      359.03446680    0.00000000
                                                     2       15.0874145      176.47401190    0.00000000
                                                     2        4.0405764       54.51552860    0.00000000
                                      F - G
                                                     0      127.3507908        3.95461970    0.00000000
                                                     1       66.2364374       52.97736550    0.00000000
                                                     2       34.4299229      274.86433830    0.00000000
                                                     2       10.1995721      137.20473380    0.00000000
                                                     2        2.5409702       14.86333050    0.00000000
   20          8
                                   No pseudopotential on this center.
   21          8
                                   No pseudopotential on this center.
   22          8
                                   No pseudopotential on this center.
   23          5
                                   No pseudopotential on this center.
   24          5
                                   No pseudopotential on this center.
   25          5
                                   No pseudopotential on this center.
   26          8
                                   No pseudopotential on this center.
   27          8
                                   No pseudopotential on this center.
   28          6
                                   No pseudopotential on this center.
   29          6
                                   No pseudopotential on this center.
   30          6
                                   No pseudopotential on this center.
   31          6
                                   No pseudopotential on this center.
   32          6
                                   No pseudopotential on this center.
   33          6
                                   No pseudopotential on this center.
   34          8
                                   No pseudopotential on this center.
   35          6
                                   No pseudopotential on this center.
   36          1
                                   No pseudopotential on this center.
   37          1
                                   No pseudopotential on this center.
   38          1
                                   No pseudopotential on this center.
   39          6
                                   No pseudopotential on this center.
   40          1
                                   No pseudopotential on this center.
   41          1
                                   No pseudopotential on this center.
   42          1
                                   No pseudopotential on this center.
   43          6
                                   No pseudopotential on this center.
   44          1
                                   No pseudopotential on this center.
   45          1
                                   No pseudopotential on this center.
   46          1
                                   No pseudopotential on this center.
   47          6
                                   No pseudopotential on this center.
   48          1
                                   No pseudopotential on this center.
   49          1
                                   No pseudopotential on this center.
   50          1
                                   No pseudopotential on this center.
   51          6
                                   No pseudopotential on this center.
   52          1
                                   No pseudopotential on this center.
   53          1
                                   No pseudopotential on this center.
   54          1
                                   No pseudopotential on this center.
   55          6
                                   No pseudopotential on this center.
   56          1
                                   No pseudopotential on this center.
   57          1
                                   No pseudopotential on this center.
   58          1
                                   No pseudopotential on this center.
   59          6
                                   No pseudopotential on this center.
   60          1
                                   No pseudopotential on this center.
   61          1
                                   No pseudopotential on this center.
   62          1
                                   No pseudopotential on this center.
   63          6
                                   No pseudopotential on this center.
   64          1
                                   No pseudopotential on this center.
   65          1
                                   No pseudopotential on this center.
   66          1
                                   No pseudopotential on this center.
   67          6
                                   No pseudopotential on this center.
   68          1
                                   No pseudopotential on this center.
   69          1
                                   No pseudopotential on this center.
   70          1
                                   No pseudopotential on this center.
   71          6
                                   No pseudopotential on this center.
   72          1
                                   No pseudopotential on this center.
   73          1
                                   No pseudopotential on this center.
   74          1
                                   No pseudopotential on this center.
   75          6
                                   No pseudopotential on this center.
   76          1
                                   No pseudopotential on this center.
   77          1
                                   No pseudopotential on this center.
   78          1
                                   No pseudopotential on this center.
   79          6
                                   No pseudopotential on this center.
   80          1
                                   No pseudopotential on this center.
   81          1
                                   No pseudopotential on this center.
   82          1
                                   No pseudopotential on this center.
   83          1
                                   No pseudopotential on this center.
   84          6
                                   No pseudopotential on this center.
   85          8
                                   No pseudopotential on this center.
   86          6
                                   No pseudopotential on this center.
   87          1
                                   No pseudopotential on this center.
   88          1
                                   No pseudopotential on this center.
   89          6
                                   No pseudopotential on this center.
   90          1
                                   No pseudopotential on this center.
   91          1
                                   No pseudopotential on this center.
   92          7
                                   No pseudopotential on this center.
   93          6
                                   No pseudopotential on this center.
   94          1
                                   No pseudopotential on this center.
   95          1
                                   No pseudopotential on this center.
   96          1
                                   No pseudopotential on this center.
   97          6
                                   No pseudopotential on this center.
   98          1
                                   No pseudopotential on this center.
   99          1
                                   No pseudopotential on this center.
  100          6
                                   No pseudopotential on this center.
  101          1
                                   No pseudopotential on this center.
  102          1
                                   No pseudopotential on this center.
  103          6
                                   No pseudopotential on this center.
  104          1
                                   No pseudopotential on this center.
  105          1
                                   No pseudopotential on this center.
  106          6
                                   No pseudopotential on this center.
  107          1
                                   No pseudopotential on this center.
  108          1
                                   No pseudopotential on this center.
  109          1
                                   No pseudopotential on this center.
  110          6
                                   No pseudopotential on this center.
  111          9
                                   No pseudopotential on this center.
  112          9
                                   No pseudopotential on this center.
  113          9
                                   No pseudopotential on this center.
  114          1
                                   No pseudopotential on this center.
 ======================================================================================================
 There are   939 symmetry adapted cartesian basis functions of A   symmetry.
 There are   884 symmetry adapted basis functions of A   symmetry.
   884 basis functions,  1767 primitive gaussians,   939 cartesian basis functions
   209 alpha electrons      209 beta electrons
       nuclear repulsion energy      9386.7463416529 Hartrees.
 NAtoms=  114 NActive=  114 NUniq=  114 SFac= 1.00D+00 NAtFMM=   60 NAOKFM=T Big=T
 Integral buffers will be    131072 words long.
 Raffenetti 2 integral format.
 Two-electron integral symmetry is turned on.
 One-electron integrals computed using PRISM.
   1 Symmetry operations used in ECPInt.
 ECPInt:  NShTT=   57970 NPrTT=  353525 LenC2=   43329 LenP2D=  132491.
 LDataN:  DoStor=T MaxTD1= 6 Len=  172
 NBasis=   884 RedAO= T EigKep=  4.86D-04  NBF=   884
 NBsUse=   884 1.00D-06 EigRej= -1.00D+00 NBFU=   884
 Defaulting to unpruned grid for atomic number  77.
 ExpMin= 2.90D-02 ExpMax= 7.00D+03 ExpMxC= 1.05D+03 IAcc=3 IRadAn=         5 AccDes= 0.00D+00
 Harris functional with IExCor= 1009 and IRadAn=       5 diagonalized for initial guess.
 HarFok:  IExCor= 1009 AccDes= 0.00D+00 IRadAn=         5 IDoV= 1 UseB2=F ITyADJ=14
 ICtDFT=  3500011 ScaDFX=  1.000000  1.000000  1.000000  1.000000
 Defaulting to unpruned grid for atomic number  77.
 FoFCou: FMM=F IPFlag=           0 FMFlag=      100000 FMFlg1=        2001
         NFxFlg=           0 DoJE=T BraDBF=F KetDBF=T FulRan=T
         wScrn=  0.000000 ICntrl=       500 IOpCl=  0 I1Cent=   200000004 NGrid=           0
         NMat0=    1 NMatS0=      1 NMatT0=    0 NMatD0=    1 NMtDS0=    0 NMtDT0=    0
 Petite list used in FoFCou.
 Requested convergence on RMS density matrix=1.00D-08 within 128 cycles.
 Requested convergence on MAX density matrix=1.00D-06.
 Requested convergence on             energy=1.00D-06.
 No special actions if energy rises.
 Defaulting to unpruned grid for atomic number  77.
 Defaulting to unpruned grid for atomic number  77.
 Defaulting to unpruned grid for atomic number  77.
 Defaulting to unpruned grid for atomic number  77.
 Defaulting to unpruned grid for atomic number  77.
 Defaulting to unpruned grid for atomic number  77.
 Defaulting to unpruned grid for atomic number  77.
 Defaulting to unpruned grid for atomic number  77.
 Defaulting to unpruned grid for atomic number  77.
 Defaulting to unpruned grid for atomic number  77.
 Defaulting to unpruned grid for atomic number  77.
 Defaulting to unpruned grid for atomic number  77.
 Defaulting to unpruned grid for atomic number  77.
 Defaulting to unpruned grid for atomic number  77.
 Defaulting to unpruned grid for atomic number  77.
 Defaulting to unpruned grid for atomic number  77.
 SCF Done:  E(RM06) =  -2614.45522126     A.U. after   16 cycles
            NFock= 16  Conv=0.43D-08     -V/T= 2.0345
 DoSCS=F DFT=T ScalE2(SS,OS)=  1.000000  1.000000
 Range of M.O.s used for correlation:     1   884
 NBasis=   884 NAE=   209 NBE=   209 NFC=     0 NFV=     0
 NROrb=    884 NOA=   209 NOB=   209 NVA=   675 NVB=   675
   1 Symmetry operations used in ECPInt.
 ECPInt:  NShTT=   57970 NPrTT=  353525 LenC2=   43329 LenP2D=  132491.
 LDataN:  DoStor=T MaxTD1= 7 Len=  274
 Number of processors reduced to   7 by ecpmxn.
 Symmetrizing basis deriv contribution to polar:
 IMax=3 JMax=2 DiffMx= 0.00D+00
 G2DrvN: will do   115 centers at a time, making    1 passes.
 Calling FoFCou, ICntrl=  3107 FMM=T I1Cent=   0 AccDes= 0.00D+00.
 Defaulting to unpruned grid for atomic number  77.
 Defaulting to unpruned grid for atomic number  77.
 Defaulting to unpruned grid for atomic number  77.
 Defaulting to unpruned grid for atomic number  77.
 Defaulting to unpruned grid for atomic number  77.
 Defaulting to unpruned grid for atomic number  77.
 Defaulting to unpruned grid for atomic number  77.
 Defaulting to unpruned grid for atomic number  77.
 Defaulting to unpruned grid for atomic number  77.
 Defaulting to unpruned grid for atomic number  77.
 Defaulting to unpruned grid for atomic number  77.
 Defaulting to unpruned grid for atomic number  77.
 Defaulting to unpruned grid for atomic number  77.
 Defaulting to unpruned grid for atomic number  77.
 Defaulting to unpruned grid for atomic number  77.
 Defaulting to unpruned grid for atomic number  77.
 End of G2Drv F.D. properties file   721 does not exist.
 End of G2Drv F.D. properties file   722 does not exist.
 End of G2Drv F.D. properties file   788 does not exist.
          IDoAtm=11111111111111111111111111111111111111111111111111
          IDoAtm=11111111111111111111111111111111111111111111111111
          IDoAtm=11111111111111
          Differentiating once with respect to electric field.
                with respect to dipole field.
          Differentiating once with respect to nuclear coordinates.
 Defaulting to unpruned grid for atomic number  77.
 CalDSu exits because no D1Ps are significant.
 Defaulting to unpruned grid for atomic number  77.
 Defaulting to unpruned grid for atomic number  77.
 Defaulting to unpruned grid for atomic number  77.
 Defaulting to unpruned grid for atomic number  77.
 Defaulting to unpruned grid for atomic number  77.
 Defaulting to unpruned grid for atomic number  77.
 Defaulting to unpruned grid for atomic number  77.
 Defaulting to unpruned grid for atomic number  77.
 Defaulting to unpruned grid for atomic number  77.
 Defaulting to unpruned grid for atomic number  77.
 Defaulting to unpruned grid for atomic number  77.
 Defaulting to unpruned grid for atomic number  77.
 Defaulting to unpruned grid for atomic number  77.
 Defaulting to unpruned grid for atomic number  77.
 Defaulting to unpruned grid for atomic number  77.
 Defaulting to unpruned grid for atomic number  77.
          There are   345 degrees of freedom in the 1st order CPHF.  IDoFFX=6 NUNeed=     3.
    342 vectors produced by pass  0 Test12= 1.41D-13 1.00D-09 XBig12= 4.72D+02 6.18D+00.
 AX will form    72 AO Fock derivatives at one time.
    342 vectors produced by pass  1 Test12= 1.41D-13 1.00D-09 XBig12= 7.15D+01 7.40D-01.
    342 vectors produced by pass  2 Test12= 1.41D-13 1.00D-09 XBig12= 8.95D-01 8.84D-02.
    342 vectors produced by pass  3 Test12= 1.41D-13 1.00D-09 XBig12= 6.96D-03 5.67D-03.
    342 vectors produced by pass  4 Test12= 1.41D-13 1.00D-09 XBig12= 2.46D-05 2.74D-04.
    296 vectors produced by pass  5 Test12= 1.41D-13 1.00D-09 XBig12= 4.46D-08 1.14D-05.
     74 vectors produced by pass  6 Test12= 1.41D-13 1.00D-09 XBig12= 6.08D-11 4.40D-07.
      3 vectors produced by pass  7 Test12= 1.41D-13 1.00D-09 XBig12= 8.31D-14 1.92D-08.
 InvSVY:  IOpt=1 It=  1 EMax= 2.84D-14
 Solved reduced A of dimension  2083 with   345 vectors.
 Isotropic polarizability for W=    0.000000      506.61 Bohr**3.
 End of Minotr F.D. properties file   721 does not exist.
 End of Minotr F.D. properties file   722 does not exist.
 End of Minotr F.D. properties file   788 does not exist.
 Hyperfine terms turned off by default for NAtoms > 100.

 **********************************************************************

            Population analysis using the SCF Density.

 **********************************************************************

 Orbital symmetries:
       Occupied  (A) (A) (A) (A) (A) (A) (A) (A) (A) (A) (A) (A)
                 (A) (A) (A) (A) (A) (A) (A) (A) (A) (A) (A) (A)
                 (A) (A) (A) (A) (A) (A) (A) (A) (A) (A) (A) (A)
                 (A) (A) (A) (A) (A) (A) (A) (A) (A) (A) (A) (A)
                 (A) (A) (A) (A) (A) (A) (A) (A) (A) (A) (A) (A)
                 (A) (A) (A) (A) (A) (A) (A) (A) (A) (A) (A) (A)
                 (A) (A) (A) (A) (A) (A) (A) (A) (A) (A) (A) (A)
                 (A) (A) (A) (A) (A) (A) (A) (A) (A) (A) (A) (A)
                 (A) (A) (A) (A) (A) (A) (A) (A) (A) (A) (A) (A)
                 (A) (A) (A) (A) (A) (A) (A) (A) (A) (A) (A) (A)
                 (A) (A) (A) (A) (A) (A) (A) (A) (A) (A) (A) (A)
                 (A) (A) (A) (A) (A) (A) (A) (A) (A) (A) (A) (A)
                 (A) (A) (A) (A) (A) (A) (A) (A) (A) (A) (A) (A)
                 (A) (A) (A) (A) (A) (A) (A) (A) (A) (A) (A) (A)
                 (A) (A) (A) (A) (A) (A) (A) (A) (A) (A) (A) (A)
                 (A) (A) (A) (A) (A) (A) (A) (A) (A) (A) (A) (A)
                 (A) (A) (A) (A) (A) (A) (A) (A) (A) (A) (A) (A)
                 (A) (A) (A) (A) (A)
       Virtual   (A) (A) (A) (A) (A) (A) (A) (A) (A) (A) (A) (A)
                 (A) (A) (A) (A) (A) (A) (A) (A) (A) (A) (A) (A)
                 (A) (A) (A) (A) (A) (A) (A) (A) (A) (A) (A) (A)
                 (A) (A) (A) (A) (A) (A) (A) (A) (A) (A) (A) (A)
                 (A) (A) (A) (A) (A) (A) (A) (A) (A) (A) (A) (A)
                 (A) (A) (A) (A) (A) (A) (A) (A) (A) (A) (A) (A)
                 (A) (A) (A) (A) (A) (A) (A) (A) (A) (A) (A) (A)
                 (A) (A) (A) (A) (A) (A) (A) (A) (A) (A) (A) (A)
                 (A) (A) (A) (A) (A) (A) (A) (A) (A) (A) (A) (A)
                 (A) (A) (A) (A) (A) (A) (A) (A) (A) (A) (A) (A)
                 (A) (A) (A) (A) (A) (A) (A) (A) (A) (A) (A) (A)
                 (A) (A) (A) (A) (A) (A) (A) (A) (A) (A) (A) (A)
                 (A) (A) (A) (A) (A) (A) (A) (A) (A) (A) (A) (A)
                 (A) (A) (A) (A) (A) (A) (A) (A) (A) (A) (A) (A)
                 (A) (A) (A) (A) (A) (A) (A) (A) (A) (A) (A) (A)
                 (A) (A) (A) (A) (A) (A) (A) (A) (A) (A) (A) (A)
                 (A) (A) (A) (A) (A) (A) (A) (A) (A) (A) (A) (A)
                 (A) (A) (A) (A) (A) (A) (A) (A) (A) (A) (A) (A)
                 (A) (A) (A) (A) (A) (A) (A) (A) (A) (A) (A) (A)
                 (A) (A) (A) (A) (A) (A) (A) (A) (A) (A) (A) (A)
                 (A) (A) (A) (A) (A) (A) (A) (A) (A) (A) (A) (A)
                 (A) (A) (A) (A) (A) (A) (A) (A) (A) (A) (A) (A)
                 (A) (A) (A) (A) (A) (A) (A) (A) (A) (A) (A) (A)
                 (A) (A) (A) (A) (A) (A) (A) (A) (A) (A) (A) (A)
                 (A) (A) (A) (A) (A) (A) (A) (A) (A) (A) (A) (A)
                 (A) (A) (A) (A) (A) (A) (A) (A) (A) (A) (A) (A)
                 (A) (A) (A) (A) (A) (A) (A) (A) (A) (A) (A) (A)
                 (A) (A) (A) (A) (A) (A) (A) (A) (A) (A) (A) (A)
                 (A) (A) (A) (A) (A) (A) (A) (A) (A) (A) (A) (A)
                 (A) (A) (A) (A) (A) (A) (A) (A) (A) (A) (A) (A)
                 (A) (A) (A) (A) (A) (A) (A) (A) (A) (A) (A) (A)
                 (A) (A) (A) (A) (A) (A) (A) (A) (A) (A) (A) (A)
                 (A) (A) (A) (A) (A) (A) (A) (A) (A) (A) (A) (A)
                 (A) (A) (A) (A) (A) (A) (A) (A) (A) (A) (A) (A)
                 (A) (A) (A) (A) (A) (A) (A) (A) (A) (A) (A) (A)
                 (A) (A) (A) (A) (A) (A) (A) (A) (A) (A) (A) (A)
                 (A) (A) (A) (A) (A) (A) (A) (A) (A) (A) (A) (A)
                 (A) (A) (A) (A) (A) (A) (A) (A) (A) (A) (A) (A)
                 (A) (A) (A) (A) (A) (A) (A) (A) (A) (A) (A) (A)
                 (A) (A) (A) (A) (A) (A) (A) (A) (A) (A) (A) (A)
                 (A) (A) (A) (A) (A) (A) (A) (A) (A) (A) (A) (A)
                 (A) (A) (A) (A) (A) (A) (A) (A) (A) (A) (A) (A)
                 (A) (A) (A) (A) (A) (A) (A) (A) (A) (A) (A) (A)
                 (A) (A) (A) (A) (A) (A) (A) (A) (A) (A) (A) (A)
                 (A) (A) (A) (A) (A) (A) (A) (A) (A) (A) (A) (A)
                 (A) (A) (A) (A) (A) (A) (A) (A) (A) (A) (A) (A)
                 (A) (A) (A) (A) (A) (A) (A) (A) (A) (A) (A) (A)
                 (A) (A) (A) (A) (A) (A) (A) (A) (A) (A) (A) (A)
                 (A) (A) (A) (A) (A) (A) (A) (A) (A) (A) (A) (A)
                 (A) (A) (A) (A) (A) (A) (A) (A) (A) (A) (A) (A)
                 (A) (A) (A) (A) (A) (A) (A) (A) (A) (A) (A) (A)
                 (A) (A) (A) (A) (A) (A) (A) (A) (A) (A) (A) (A)
                 (A) (A) (A) (A) (A) (A) (A) (A) (A) (A) (A) (A)
                 (A) (A) (A) (A) (A) (A) (A) (A) (A) (A) (A) (A)
                 (A) (A) (A) (A) (A) (A) (A) (A) (A) (A) (A) (A)
                 (A) (A) (A) (A) (A) (A) (A) (A) (A) (A) (A) (A)
                 (A) (A) (A)
 The electronic state is 1-A.
 Alpha  occ. eigenvalues --  -24.82560 -24.82197 -24.81947 -19.20998 -19.20696
 Alpha  occ. eigenvalues --  -19.20671 -19.20582 -19.20211 -19.19892 -19.16856
 Alpha  occ. eigenvalues --  -14.45048 -14.44805 -14.40751 -10.50714 -10.32534
 Alpha  occ. eigenvalues --  -10.32164 -10.32120 -10.30951 -10.30092 -10.30008
 Alpha  occ. eigenvalues --  -10.29879 -10.29408 -10.29393 -10.29370 -10.29108
 Alpha  occ. eigenvalues --  -10.29094 -10.28975 -10.28497 -10.28337 -10.28103
 Alpha  occ. eigenvalues --  -10.28052 -10.26607 -10.24293 -10.23714 -10.23692
 Alpha  occ. eigenvalues --  -10.23650 -10.23267 -10.23110 -10.23016 -10.22990
 Alpha  occ. eigenvalues --  -10.22973 -10.22827 -10.22807 -10.22786 -10.22734
 Alpha  occ. eigenvalues --  -10.22336 -10.22215 -10.22197 -10.22139 -10.21408
 Alpha  occ. eigenvalues --   -6.81573  -6.81440  -6.80484  -3.64936  -2.07149
 Alpha  occ. eigenvalues --   -2.06607  -2.06231  -1.35086  -1.26612  -1.26064
 Alpha  occ. eigenvalues --   -1.07014  -1.06456  -1.06148  -1.02644  -1.00322
 Alpha  occ. eigenvalues --   -0.99897  -0.99445  -0.99339  -0.97735  -0.92276
 Alpha  occ. eigenvalues --   -0.85648  -0.84095  -0.83167  -0.81165  -0.81081
 Alpha  occ. eigenvalues --   -0.80540  -0.80212  -0.78855  -0.76934  -0.75509
 Alpha  occ. eigenvalues --   -0.74905  -0.74619  -0.73358  -0.71052  -0.70521
 Alpha  occ. eigenvalues --   -0.70416  -0.70276  -0.70046  -0.68462  -0.68393
 Alpha  occ. eigenvalues --   -0.68243  -0.67567  -0.67223  -0.65667  -0.65237
 Alpha  occ. eigenvalues --   -0.64214  -0.62504  -0.61749  -0.61247  -0.61088
 Alpha  occ. eigenvalues --   -0.60956  -0.60409  -0.59821  -0.57917  -0.57181
 Alpha  occ. eigenvalues --   -0.55573  -0.54952  -0.54798  -0.54563  -0.53661
 Alpha  occ. eigenvalues --   -0.53570  -0.53183  -0.52295  -0.51887  -0.50375
 Alpha  occ. eigenvalues --   -0.50019  -0.48854  -0.48624  -0.48520  -0.48352
 Alpha  occ. eigenvalues --   -0.47805  -0.47675  -0.47260  -0.46979  -0.46865
 Alpha  occ. eigenvalues --   -0.46549  -0.46469  -0.46223  -0.45821  -0.45699
 Alpha  occ. eigenvalues --   -0.45238  -0.45155  -0.44958  -0.44766  -0.44420
 Alpha  occ. eigenvalues --   -0.44178  -0.44096  -0.44041  -0.43934  -0.43691
 Alpha  occ. eigenvalues --   -0.43439  -0.43056  -0.42421  -0.42332  -0.41973
 Alpha  occ. eigenvalues --   -0.41882  -0.40937  -0.40679  -0.40638  -0.40373
 Alpha  occ. eigenvalues --   -0.40223  -0.40056  -0.39982  -0.39884  -0.39864
 Alpha  occ. eigenvalues --   -0.39658  -0.39484  -0.39414  -0.39192  -0.39016
 Alpha  occ. eigenvalues --   -0.38874  -0.38745  -0.38153  -0.37933  -0.37664
 Alpha  occ. eigenvalues --   -0.37577  -0.37305  -0.37182  -0.37128  -0.37094
 Alpha  occ. eigenvalues --   -0.36560  -0.36368  -0.36148  -0.36096  -0.35874
 Alpha  occ. eigenvalues --   -0.35752  -0.35544  -0.35397  -0.34833  -0.34728
 Alpha  occ. eigenvalues --   -0.34346  -0.34260  -0.33842  -0.33734  -0.33092
 Alpha  occ. eigenvalues --   -0.32793  -0.32569  -0.32427  -0.32201  -0.32043
 Alpha  occ. eigenvalues --   -0.31803  -0.31412  -0.31328  -0.31037  -0.30440
 Alpha  occ. eigenvalues --   -0.30387  -0.29832  -0.28713  -0.27951  -0.27406
 Alpha  occ. eigenvalues --   -0.26834  -0.26735  -0.26375  -0.26207  -0.25487
 Alpha  occ. eigenvalues --   -0.24052  -0.23757  -0.22909  -0.18627
 Alpha virt. eigenvalues --   -0.07250  -0.03887  -0.03009   0.01009   0.01374
 Alpha virt. eigenvalues --    0.02763   0.04951   0.05442   0.05738   0.06344
 Alpha virt. eigenvalues --    0.07189   0.07989   0.09290   0.09606   0.09953
 Alpha virt. eigenvalues --    0.10114   0.10706   0.10867   0.11211   0.11467
 Alpha virt. eigenvalues --    0.11752   0.12224   0.12647   0.13008   0.13022
 Alpha virt. eigenvalues --    0.13354   0.13621   0.13887   0.14075   0.14561
 Alpha virt. eigenvalues --    0.14571   0.14874   0.14968   0.15024   0.15450
 Alpha virt. eigenvalues --    0.15582   0.15667   0.15761   0.15931   0.16149
 Alpha virt. eigenvalues --    0.16477   0.16659   0.16748   0.16854   0.16987
 Alpha virt. eigenvalues --    0.17094   0.17453   0.17554   0.17821   0.17995
 Alpha virt. eigenvalues --    0.18126   0.18187   0.18507   0.18646   0.18809
 Alpha virt. eigenvalues --    0.19034   0.19288   0.19355   0.19512   0.19583
 Alpha virt. eigenvalues --    0.19932   0.20221   0.20423   0.20643   0.20872
 Alpha virt. eigenvalues --    0.20957   0.21342   0.21474   0.21690   0.21924
 Alpha virt. eigenvalues --    0.22104   0.22353   0.22615   0.22761   0.22974
 Alpha virt. eigenvalues --    0.23082   0.23238   0.23406   0.23730   0.23924
 Alpha virt. eigenvalues --    0.24121   0.24297   0.24495   0.24546   0.24845
 Alpha virt. eigenvalues --    0.25008   0.25262   0.25492   0.25499   0.25874
 Alpha virt. eigenvalues --    0.26060   0.26256   0.26691   0.27054   0.27262
 Alpha virt. eigenvalues --    0.27623   0.27712   0.28032   0.28505   0.28780
 Alpha virt. eigenvalues --    0.28938   0.29350   0.29809   0.30222   0.30516
 Alpha virt. eigenvalues --    0.30832   0.31072   0.31629   0.31890   0.32141
 Alpha virt. eigenvalues --    0.32960   0.33356   0.34557   0.35236   0.35647
 Alpha virt. eigenvalues --    0.36816   0.36997   0.37274   0.37632   0.37964
 Alpha virt. eigenvalues --    0.39292   0.39726   0.40105   0.40395   0.41599
 Alpha virt. eigenvalues --    0.42846   0.43606   0.44241   0.45903   0.46183
 Alpha virt. eigenvalues --    0.47481   0.47742   0.48213   0.48735   0.49207
 Alpha virt. eigenvalues --    0.50018   0.50286   0.50470   0.50680   0.51282
 Alpha virt. eigenvalues --    0.51631   0.51917   0.52216   0.52570   0.52913
 Alpha virt. eigenvalues --    0.53210   0.53648   0.54429   0.54475   0.54644
 Alpha virt. eigenvalues --    0.55144   0.55555   0.55658   0.56245   0.56493
 Alpha virt. eigenvalues --    0.56733   0.56901   0.57137   0.57394   0.57553
 Alpha virt. eigenvalues --    0.57914   0.58196   0.58484   0.58736   0.59086
 Alpha virt. eigenvalues --    0.59247   0.59637   0.60000   0.60107   0.60409
 Alpha virt. eigenvalues --    0.60565   0.60703   0.61186   0.61518   0.61637
 Alpha virt. eigenvalues --    0.61703   0.62560   0.62656   0.63084   0.63367
 Alpha virt. eigenvalues --    0.63779   0.64023   0.64354   0.64816   0.65097
 Alpha virt. eigenvalues --    0.65397   0.65659   0.65818   0.66407   0.66649
 Alpha virt. eigenvalues --    0.67031   0.67158   0.67544   0.67816   0.68294
 Alpha virt. eigenvalues --    0.68575   0.68919   0.69309   0.69684   0.69954
 Alpha virt. eigenvalues --    0.70112   0.70358   0.71212   0.71292   0.71355
 Alpha virt. eigenvalues --    0.72013   0.72153   0.72613   0.72832   0.73341
 Alpha virt. eigenvalues --    0.73722   0.73862   0.74033   0.74282   0.74697
 Alpha virt. eigenvalues --    0.75014   0.75635   0.76113   0.76423   0.77192
 Alpha virt. eigenvalues --    0.77717   0.77800   0.78120   0.78184   0.78710
 Alpha virt. eigenvalues --    0.79305   0.79626   0.79983   0.80152   0.80791
 Alpha virt. eigenvalues --    0.80910   0.81365   0.81803   0.82004   0.82341
 Alpha virt. eigenvalues --    0.82575   0.82793   0.83377   0.83614   0.83816
 Alpha virt. eigenvalues --    0.84292   0.84370   0.84522   0.84647   0.84852
 Alpha virt. eigenvalues --    0.85176   0.85428   0.85637   0.86029   0.86331
 Alpha virt. eigenvalues --    0.86560   0.86797   0.86960   0.87307   0.87603
 Alpha virt. eigenvalues --    0.87689   0.88037   0.88169   0.88630   0.88749
 Alpha virt. eigenvalues --    0.88792   0.88843   0.89254   0.89519   0.89947
 Alpha virt. eigenvalues --    0.90214   0.90307   0.90578   0.90744   0.90952
 Alpha virt. eigenvalues --    0.91302   0.91511   0.91817   0.91876   0.92210
 Alpha virt. eigenvalues --    0.92475   0.92597   0.92801   0.92943   0.93585
 Alpha virt. eigenvalues --    0.93666   0.94079   0.94409   0.94634   0.95109
 Alpha virt. eigenvalues --    0.95357   0.95590   0.95735   0.96514   0.96561
 Alpha virt. eigenvalues --    0.96852   0.97109   0.97441   0.97790   0.98209
 Alpha virt. eigenvalues --    0.98746   0.99003   0.99421   0.99786   0.99957
 Alpha virt. eigenvalues --    1.00310   1.00668   1.01499   1.01685   1.01984
 Alpha virt. eigenvalues --    1.02528   1.02860   1.03219   1.03633   1.04503
 Alpha virt. eigenvalues --    1.04796   1.05991   1.06147   1.06744   1.06958
 Alpha virt. eigenvalues --    1.07787   1.08663   1.09219   1.09619   1.10233
 Alpha virt. eigenvalues --    1.10956   1.11414   1.12528   1.12695   1.13181
 Alpha virt. eigenvalues --    1.13664   1.14221   1.14699   1.15380   1.15992
 Alpha virt. eigenvalues --    1.16534   1.16911   1.17292   1.17908   1.18202
 Alpha virt. eigenvalues --    1.18651   1.19032   1.19429   1.19442   1.20135
 Alpha virt. eigenvalues --    1.20630   1.21153   1.21894   1.22311   1.22666
 Alpha virt. eigenvalues --    1.23130   1.24485   1.24853   1.25448   1.25719
 Alpha virt. eigenvalues --    1.26520   1.27480   1.27747   1.28062   1.28638
 Alpha virt. eigenvalues --    1.29297   1.29601   1.30409   1.31344   1.32066
 Alpha virt. eigenvalues --    1.32651   1.33466   1.34279   1.34632   1.35086
 Alpha virt. eigenvalues --    1.35648   1.36199   1.36534   1.37138   1.37566
 Alpha virt. eigenvalues --    1.38502   1.38726   1.39072   1.39413   1.39739
 Alpha virt. eigenvalues --    1.40110   1.40510   1.41261   1.41389   1.42346
 Alpha virt. eigenvalues --    1.42497   1.42814   1.43310   1.44019   1.45001
 Alpha virt. eigenvalues --    1.45295   1.45689   1.46008   1.46529   1.46788
 Alpha virt. eigenvalues --    1.46864   1.47874   1.48026   1.48363   1.48562
 Alpha virt. eigenvalues --    1.49201   1.50388   1.50522   1.50991   1.51604
 Alpha virt. eigenvalues --    1.52054   1.52919   1.53737   1.53946   1.55010
 Alpha virt. eigenvalues --    1.56010   1.57440   1.58227   1.58916   1.60334
 Alpha virt. eigenvalues --    1.60486   1.61789   1.62967   1.63078   1.64228
 Alpha virt. eigenvalues --    1.64787   1.65066   1.65574   1.65778   1.66591
 Alpha virt. eigenvalues --    1.67084   1.67571   1.67785   1.68551   1.68998
 Alpha virt. eigenvalues --    1.69184   1.69853   1.70084   1.70734   1.71890
 Alpha virt. eigenvalues --    1.72117   1.73612   1.73832   1.74134   1.74605
 Alpha virt. eigenvalues --    1.76332   1.76619   1.76857   1.77070   1.77878
 Alpha virt. eigenvalues --    1.78317   1.78645   1.79244   1.79384   1.80029
 Alpha virt. eigenvalues --    1.80570   1.81320   1.81768   1.82039   1.82752
 Alpha virt. eigenvalues --    1.82949   1.83341   1.83705   1.83918   1.84710
 Alpha virt. eigenvalues --    1.85417   1.85523   1.85845   1.86324   1.86667
 Alpha virt. eigenvalues --    1.87148   1.87467   1.87831   1.88004   1.88634
 Alpha virt. eigenvalues --    1.89211   1.89722   1.89873   1.90504   1.90778
 Alpha virt. eigenvalues --    1.91185   1.91464   1.91675   1.91962   1.92127
 Alpha virt. eigenvalues --    1.92302   1.92489   1.92676   1.92932   1.92949
 Alpha virt. eigenvalues --    1.93302   1.93864   1.93995   1.94251   1.94607
 Alpha virt. eigenvalues --    1.95088   1.95578   1.96069   1.96723   1.97129
 Alpha virt. eigenvalues --    1.97640   1.98252   1.98570   1.99674   2.00467
 Alpha virt. eigenvalues --    2.01102   2.01330   2.02221   2.02496   2.02620
 Alpha virt. eigenvalues --    2.02876   2.03217   2.03709   2.03975   2.04490
 Alpha virt. eigenvalues --    2.04902   2.05072   2.05352   2.06177   2.06413
 Alpha virt. eigenvalues --    2.06912   2.07087   2.07489   2.08063   2.08292
 Alpha virt. eigenvalues --    2.08628   2.08927   2.09390   2.09705   2.10064
 Alpha virt. eigenvalues --    2.10449   2.10866   2.11255   2.11665   2.12230
 Alpha virt. eigenvalues --    2.12478   2.12876   2.13264   2.13804   2.14141
 Alpha virt. eigenvalues --    2.14373   2.14728   2.15017   2.15359   2.16135
 Alpha virt. eigenvalues --    2.16253   2.16646   2.16888   2.17421   2.17708
 Alpha virt. eigenvalues --    2.18501   2.18708   2.18977   2.19331   2.19627
 Alpha virt. eigenvalues --    2.20008   2.20160   2.20299   2.20550   2.21295
 Alpha virt. eigenvalues --    2.21918   2.21975   2.22513   2.22960   2.23166
 Alpha virt. eigenvalues --    2.23288   2.23633   2.24194   2.24620   2.24711
 Alpha virt. eigenvalues --    2.25046   2.25504   2.26408   2.26689   2.26769
 Alpha virt. eigenvalues --    2.27326   2.27869   2.28165   2.28424   2.29401
 Alpha virt. eigenvalues --    2.30079   2.30729   2.30951   2.31483   2.32590
 Alpha virt. eigenvalues --    2.32933   2.33300   2.33861   2.33887   2.34671
 Alpha virt. eigenvalues --    2.34905   2.35380   2.36090   2.36544   2.37601
 Alpha virt. eigenvalues --    2.38577   2.38955   2.39328   2.39760   2.40593
 Alpha virt. eigenvalues --    2.40704   2.41616   2.42379   2.44674   2.45320
 Alpha virt. eigenvalues --    2.46725   2.47258   2.47478   2.48025   2.48663
 Alpha virt. eigenvalues --    2.49622   2.50212   2.50512   2.50590   2.51376
 Alpha virt. eigenvalues --    2.52338   2.53196   2.54423   2.55034   2.55644
 Alpha virt. eigenvalues --    2.59082   2.59708   2.60810   2.61058   2.61358
 Alpha virt. eigenvalues --    2.61507   2.61610   2.62844   2.63052   2.64703
 Alpha virt. eigenvalues --    2.64919   2.65884   2.66568   2.67655   2.67970
 Alpha virt. eigenvalues --    2.68977   2.69234   2.70939   2.73128   2.76920
 Alpha virt. eigenvalues --    2.77286   2.77619   2.77969   2.78308   2.78745
 Alpha virt. eigenvalues --    2.79126   2.79233   2.79680   2.80260   2.81196
 Alpha virt. eigenvalues --    2.81309   2.81559   2.82359   2.82982   2.83683
 Alpha virt. eigenvalues --    2.84445   2.84830   2.85786   2.90536   2.91070
 Alpha virt. eigenvalues --    2.91641   2.92492   2.93719   2.94958   2.96039
 Alpha virt. eigenvalues --    2.96171   2.96337   3.00855   3.01541   3.03303
 Alpha virt. eigenvalues --    3.05382   3.06055   3.07553   3.07867   3.09141
 Alpha virt. eigenvalues --    3.12299   3.12953   3.13392   3.13735   3.15212
 Alpha virt. eigenvalues --    3.22825   3.26749   3.32222   3.46086  11.70965
          Condensed to atoms (all electrons):
 Mulliken charges:
               1
     1  C    0.371281
     2  C    0.062742
     3  C   -0.074155
     4  C   -0.148575
     5  C   -0.174104
     6  C    0.303387
     7  C    0.069691
     8  C   -0.170627
     9  C   -0.140084
    10  C   -0.168829
    11  H    0.230419
    12  H    0.197395
    13  H    0.169766
    14  H    0.183727
    15  H    0.181209
    16  H    0.169144
    17  N   -0.522779
    18  N   -0.454087
    19  Ir  -0.301387
    20  O   -0.509720
    21  O   -0.497812
    22  O   -0.535129
    23  B    0.556498
    24  B    0.475458
    25  B    0.529982
    26  O   -0.500043
    27  O   -0.505549
    28  C    0.293976
    29  C    0.292017
    30  C    0.291997
    31  C    0.284820
    32  C    0.292657
    33  C    0.295980
    34  O   -0.503257
    35  C   -0.489432
    36  H    0.177345
    37  H    0.150927
    38  H    0.146351
    39  C   -0.513824
    40  H    0.152766
    41  H    0.165162
    42  H    0.172301
    43  C   -0.506534
    44  H    0.165948
    45  H    0.171641
    46  H    0.150573
    47  C   -0.510448
    48  H    0.152735
    49  H    0.177191
    50  H    0.153021
    51  C   -0.508173
    52  H    0.176589
    53  H    0.148987
    54  H    0.168210
    55  C   -0.507446
    56  H    0.161348
    57  H    0.149384
    58  H    0.187438
    59  C   -0.505301
    60  H    0.174336
    61  H    0.170357
    62  H    0.151764
    63  C   -0.504078
    64  H    0.167638
    65  H    0.154777
    66  H    0.154463
    67  C   -0.506161
    68  H    0.174278
    69  H    0.183700
    70  H    0.141471
    71  C   -0.507231
    72  H    0.167898
    73  H    0.172333
    74  H    0.147647
    75  C   -0.502110
    76  H    0.167820
    77  H    0.172345
    78  H    0.152116
    79  C   -0.508558
    80  H    0.166033
    81  H    0.167128
    82  H    0.154281
    83  H    0.173803
    84  C    0.579426
    85  O   -0.533268
    86  C   -0.412129
    87  H    0.151267
    88  H    0.172194
    89  C   -0.342294
    90  H    0.182390
    91  H    0.155676
    92  N   -0.365281
    93  C   -0.379886
    94  H    0.205241
    95  H    0.178356
    96  H    0.161591
    97  C   -0.271345
    98  H    0.135226
    99  H    0.168533
   100  C   -0.254314
   101  H    0.147344
   102  H    0.109735
   103  C   -0.284043
   104  H    0.145054
   105  H    0.156200
   106  C   -0.491495
   107  H    0.168519
   108  H    0.145531
   109  H    0.145755
   110  C    0.963420
   111  F   -0.309936
   112  F   -0.311549
   113  F   -0.314713
   114  H    0.179973
 Sum of Mulliken charges =  -0.00000
 Mulliken charges with hydrogens summed into heavy atoms:
               1
     1  C    0.371281
     2  C    0.293161
     3  C   -0.074155
     4  C    0.048820
     5  C   -0.004338
     6  C    0.303387
     7  C    0.253418
     8  C    0.009346
     9  C    0.041125
    10  C    0.000314
    17  N   -0.522779
    18  N   -0.454087
    19  Ir  -0.127584
    20  O   -0.509720
    21  O   -0.497812
    22  O   -0.535129
    23  B    0.556498
    24  B    0.475458
    25  B    0.529982
    26  O   -0.500043
    27  O   -0.505549
    28  C    0.293976
    29  C    0.292017
    30  C    0.291997
    31  C    0.284820
    32  C    0.292657
    33  C    0.295980
    34  O   -0.503257
    35  C   -0.014809
    39  C   -0.023595
    43  C   -0.018372
    47  C   -0.027500
    51  C   -0.014387
    55  C   -0.009277
    59  C   -0.008844
    63  C   -0.027200
    67  C   -0.006711
    71  C   -0.019354
    75  C   -0.009829
    79  C   -0.021115
    84  C    0.579426
    85  O   -0.533268
    86  C   -0.088667
    89  C   -0.004228
    92  N   -0.365281
    93  C    0.165302
    97  C    0.032414
   100  C    0.002765
   103  C    0.017211
   106  C   -0.031688
   110  C    0.963420
   111  F   -0.309936
   112  F   -0.311549
   113  F   -0.314713
 APT charges:
               1
     1  C    0.224287
     2  C    0.056903
     3  C   -0.223517
     4  C    0.118836
     5  C   -0.168584
     6  C    0.204080
     7  C    0.097435
     8  C   -0.070164
     9  C    0.110872
    10  C   -0.163235
    11  H    0.165030
    12  H    0.057134
    13  H    0.036380
    14  H    0.053152
    15  H    0.036670
    16  H    0.043745
    17  N   -0.116838
    18  N   -0.206155
    19  Ir  -0.746315
    20  O   -0.999585
    21  O   -0.979630
    22  O   -1.018926
    23  B    1.205176
    24  B    1.264215
    25  B    1.322451
    26  O   -0.961078
    27  O   -0.912463
    28  C    0.483338
    29  C    0.493394
    30  C    0.500105
    31  C    0.493116
    32  C    0.499182
    33  C    0.496114
    34  O   -0.931728
    35  C   -0.027485
    36  H    0.010411
    37  H   -0.000149
    38  H   -0.028340
    39  C   -0.009254
    40  H   -0.017860
    41  H    0.000490
    42  H    0.005146
    43  C   -0.000802
    44  H   -0.001996
    45  H    0.000031
    46  H   -0.014596
    47  C   -0.053306
    48  H    0.010027
    49  H    0.034106
    50  H   -0.017496
    51  C   -0.003874
    52  H    0.003925
    53  H   -0.019235
    54  H    0.004447
    55  C   -0.031073
    56  H   -0.013284
    57  H   -0.021540
    58  H    0.012504
    59  C   -0.021180
    60  H   -0.000518
    61  H   -0.005563
    62  H   -0.022758
    63  C   -0.015560
    64  H    0.001729
    65  H   -0.012717
    66  H   -0.004165
    67  C   -0.036073
    68  H    0.003011
    69  H    0.024275
    70  H   -0.027059
    71  C   -0.006221
    72  H    0.001427
    73  H   -0.001642
    74  H   -0.016447
    75  C   -0.041831
    76  H    0.003640
    77  H    0.018669
    78  H   -0.022027
    79  C   -0.002858
    80  H   -0.000245
    81  H    0.004459
    82  H   -0.021111
    83  H   -0.010477
    84  C    0.873821
    85  O   -0.703443
    86  C    0.003498
    87  H   -0.027933
    88  H   -0.041153
    89  C    0.314851
    90  H   -0.030694
    91  H   -0.061384
    92  N   -0.796923
    93  C    0.278731
    94  H    0.017725
    95  H   -0.047872
    96  H   -0.006631
    97  C    0.108021
    98  H   -0.062226
    99  H   -0.000576
   100  C    0.057864
   101  H   -0.018843
   102  H   -0.044492
   103  C    0.129438
   104  H   -0.062341
   105  H   -0.039281
   106  C    0.066912
   107  H   -0.037527
   108  H   -0.030001
   109  H   -0.016518
   110  C    1.788406
   111  F   -0.522522
   112  F   -0.605269
   113  F   -0.594554
   114  H    0.037965
 Sum of APT charges =  -0.00000
 APT charges with hydrogens summed into heavy atoms:
               1
     1  C    0.224287
     2  C    0.221933
     3  C   -0.223517
     4  C    0.175970
     5  C   -0.132204
     6  C    0.204080
     7  C    0.150587
     8  C   -0.032200
     9  C    0.147542
    10  C   -0.119489
    17  N   -0.116838
    18  N   -0.206155
    19  Ir  -0.756793
    20  O   -0.999585
    21  O   -0.979630
    22  O   -1.018926
    23  B    1.205176
    24  B    1.264215
    25  B    1.322451
    26  O   -0.961078
    27  O   -0.912463
    28  C    0.483338
    29  C    0.493394
    30  C    0.500105
    31  C    0.493116
    32  C    0.499182
    33  C    0.496114
    34  O   -0.931728
    35  C   -0.045563
    39  C   -0.021478
    43  C   -0.017363
    47  C   -0.026669
    51  C   -0.014737
    55  C   -0.053393
    59  C   -0.050019
    63  C   -0.030714
    67  C   -0.035846
    71  C   -0.022882
    75  C   -0.041550
    79  C   -0.019755
    84  C    0.873821
    85  O   -0.703443
    86  C   -0.065589
    89  C    0.222773
    92  N   -0.796923
    93  C    0.241953
    97  C    0.045219
   100  C   -0.005470
   103  C    0.027816
   106  C   -0.017135
   110  C    1.788406
   111  F   -0.522522
   112  F   -0.605269
   113  F   -0.594554
 Electronic spatial extent (au):  <R**2>=          31878.9297
 Charge=              0.0000 electrons
 Dipole moment (field-independent basis, Debye):
    X=              2.8622    Y=              4.3273    Z=             -1.7275  Tot=              5.4682
 Quadrupole moment (field-independent basis, Debye-Ang):
   XX=           -316.6594   YY=           -322.2122   ZZ=           -327.4974
   XY=             17.2353   XZ=             -1.5302   YZ=             -1.9063
 Traceless Quadrupole moment (field-independent basis, Debye-Ang):
   XX=              5.4636   YY=             -0.0892   ZZ=             -5.3744
   XY=             17.2353   XZ=             -1.5302   YZ=             -1.9063
 Octapole moment (field-independent basis, Debye-Ang**2):
  XXX=            -24.2042  YYY=            103.9763  ZZZ=             61.1441  XYY=            -22.0522
  XXY=             27.5673  XXZ=            -28.8297  XZZ=             12.2206  YZZ=            -17.2270
  YYZ=             42.5035  XYZ=             34.0273
 Hexadecapole moment (field-independent basis, Debye-Ang**3):
 XXXX=         -19926.9359 YYYY=         -13298.9407 ZZZZ=          -8082.4561 XXXY=            152.6756
 XXXZ=            -76.5120 YYYX=             -3.3633 YYYZ=             70.9077 ZZZX=            -17.4512
 ZZZY=            216.5980 XXYY=          -5425.4668 XXZZ=          -4498.6483 YYZZ=          -3603.6073
 XXYZ=             91.3007 YYXZ=            -69.0052 ZZXY=              6.6402
 N-N= 9.386746341653D+03 E-N=-2.485179468721D+04  KE= 2.527214354111D+03
  Exact polarizability:     558.444      19.670     515.175     -22.736      16.559     446.198
 Approx polarizability:     747.273      34.107     773.976     -56.074      62.455     682.705
   1 Symmetry operations used in ECPInt.
 ECPInt:  NShTT=   57970 NPrTT=  353525 LenC2=   43329 LenP2D=  132491.
 LDataN:  DoStor=T MaxTD1= 8 Len=  415
 Calling FoFJK, ICntrl=    100127 FMM=F ISym2X=0 I1Cent= 0 IOpClX= 0 NMat=1 NMatS=1 NMatT=0.
 Defaulting to unpruned grid for atomic number  77.
 Defaulting to unpruned grid for atomic number  77.
 Defaulting to unpruned grid for atomic number  77.
 Defaulting to unpruned grid for atomic number  77.
 Defaulting to unpruned grid for atomic number  77.
 Defaulting to unpruned grid for atomic number  77.
 Defaulting to unpruned grid for atomic number  77.
 Defaulting to unpruned grid for atomic number  77.
 Defaulting to unpruned grid for atomic number  77.
 Defaulting to unpruned grid for atomic number  77.
 Defaulting to unpruned grid for atomic number  77.
 Defaulting to unpruned grid for atomic number  77.
 Defaulting to unpruned grid for atomic number  77.
 Defaulting to unpruned grid for atomic number  77.
 Defaulting to unpruned grid for atomic number  77.
 Defaulting to unpruned grid for atomic number  77.
 Full mass-weighted force constant matrix:
 Low frequencies ---  -11.1010   -7.0035   -3.0727    0.0004    0.0005    0.0006
 Low frequencies ---    4.3657   11.4135   16.6690
 ******    1 imaginary frequencies (negative Signs) ****** 
 Diagonal vibrational polarizability:
      140.6245117     115.2183418      95.1910563
 Harmonic frequencies (cm**-1), IR intensities (KM/Mole), Raman scattering
 activities (A**4/AMU), depolarization ratios for plane and unpolarized
 incident light, reduced masses (AMU), force constants (mDyne/A),
 and normal coordinates:
                      1                      2                      3
                      A                      A                      A
 Frequencies --     -9.7048                 8.3238                16.4076
 Red. masses --      4.6364                10.8148                 5.2475
 Frc consts  --      0.0003                 0.0004                 0.0008
 IR Inten    --      0.0445                 0.1899                 0.2013
  Atom AN      X      Y      Z        X      Y      Z        X      Y      Z
     1   6    -0.02   0.01  -0.01    -0.01  -0.03  -0.03    -0.00  -0.06  -0.01
     2   6    -0.01   0.00  -0.03     0.00  -0.03   0.01    -0.02  -0.04   0.00
     3   6     0.00   0.01  -0.02     0.02  -0.05   0.04    -0.04  -0.05   0.00
     4   6     0.00   0.02  -0.02     0.02  -0.05   0.03    -0.03  -0.08   0.01
     5   6    -0.01   0.03  -0.01    -0.00  -0.04  -0.01    -0.00  -0.08   0.00
     6   6    -0.02   0.01   0.01    -0.01  -0.02  -0.05     0.01  -0.05  -0.04
     7   6     0.01  -0.03   0.06     0.00  -0.01  -0.05     0.04  -0.04  -0.05
     8   6    -0.01  -0.01   0.05     0.00  -0.02  -0.06     0.02  -0.04  -0.09
     9   6    -0.04   0.03   0.01    -0.01  -0.02  -0.07    -0.00  -0.05  -0.10
    10   6    -0.04   0.03  -0.01    -0.02  -0.02  -0.06    -0.01  -0.05  -0.08
    11   1    -0.01  -0.00  -0.03     0.00  -0.03   0.01    -0.03  -0.02   0.01
    12   1     0.01   0.03  -0.01     0.02  -0.06   0.04    -0.03  -0.09   0.01
    13   1    -0.00   0.03  -0.00    -0.01  -0.04  -0.02     0.01  -0.10   0.01
    14   1     0.03  -0.06   0.10     0.01  -0.01  -0.05     0.05  -0.03  -0.04
    15   1    -0.06   0.05  -0.00    -0.01  -0.02  -0.08    -0.02  -0.05  -0.14
    16   1    -0.06   0.06  -0.03    -0.03  -0.03  -0.07    -0.04  -0.06  -0.10
    17   7    -0.01   0.00  -0.02    -0.01  -0.02  -0.02    -0.01  -0.04  -0.01
    18   7     0.00  -0.02   0.04    -0.00  -0.01  -0.04     0.03  -0.04  -0.03
    19  77    -0.01  -0.01   0.01    -0.00  -0.01  -0.02     0.02  -0.02  -0.01
    20   8    -0.03   0.03   0.05    -0.01   0.02  -0.01     0.02   0.00  -0.02
    21   8     0.05   0.03  -0.04    -0.01   0.00   0.06     0.02  -0.01   0.03
    22   8    -0.01  -0.01  -0.01    -0.03   0.01  -0.03    -0.01  -0.00   0.00
    23   5     0.03  -0.00  -0.03    -0.01   0.01   0.03     0.02  -0.01   0.01
    24   5    -0.03  -0.00   0.04    -0.01   0.03  -0.02     0.02  -0.00  -0.02
    25   5    -0.01  -0.02   0.00    -0.01   0.00  -0.02    -0.00  -0.00  -0.00
    26   8     0.01  -0.03   0.01    -0.00   0.00  -0.01    -0.00   0.01  -0.01
    27   8    -0.05  -0.01   0.04    -0.02   0.07  -0.03     0.02   0.00  -0.02
    28   6    -0.07   0.01   0.05    -0.03   0.08  -0.03     0.02   0.01  -0.02
    29   6    -0.05   0.04   0.06    -0.02   0.05  -0.00     0.02   0.01  -0.02
    30   6     0.00  -0.03  -0.01    -0.03   0.01  -0.03    -0.03   0.01   0.01
    31   6     0.01  -0.04   0.01    -0.01   0.01  -0.02    -0.02   0.03  -0.00
    32   6     0.08   0.03  -0.08    -0.01   0.01   0.09     0.03  -0.01   0.05
    33   6     0.07  -0.03  -0.09    -0.02   0.04   0.08     0.02  -0.00   0.04
    34   8     0.05  -0.04  -0.07    -0.02   0.03   0.04     0.02  -0.01   0.02
    35   6    -0.02   0.05   0.06    -0.02   0.06   0.04     0.02   0.01  -0.01
    36   1    -0.00   0.07   0.06    -0.02   0.04   0.05     0.02   0.01  -0.01
    37   1     0.00   0.03   0.05    -0.03   0.07   0.05     0.02   0.01  -0.01
    38   1    -0.02   0.06   0.06    -0.03   0.08   0.04     0.02   0.02  -0.01
    39   6    -0.07   0.07   0.08    -0.01   0.04  -0.02     0.02   0.01  -0.03
    40   1    -0.08   0.08   0.08    -0.02   0.06  -0.02     0.02   0.01  -0.03
    41   1    -0.08   0.06   0.07    -0.00   0.03  -0.05     0.01   0.01  -0.03
    42   1    -0.05   0.09   0.08    -0.01   0.02  -0.00     0.01   0.01  -0.03
    43   6    -0.07   0.01   0.05    -0.04   0.11  -0.02     0.02   0.02  -0.02
    44   1    -0.06   0.01   0.05    -0.05   0.11   0.01     0.03   0.02  -0.01
    45   1    -0.09  -0.01   0.05    -0.05   0.13  -0.04     0.02   0.02  -0.02
    46   1    -0.09   0.02   0.06    -0.05   0.12  -0.01     0.02   0.02  -0.02
    47   6    -0.10   0.01   0.06    -0.02   0.08  -0.06     0.01   0.01  -0.03
    48   1    -0.11  -0.01   0.05    -0.01   0.11  -0.07     0.01   0.01  -0.03
    49   1    -0.09   0.01   0.06    -0.00   0.06  -0.07     0.01   0.00  -0.03
    50   1    -0.12   0.02   0.07    -0.01   0.08  -0.07     0.01   0.01  -0.03
    51   6     0.09   0.05  -0.08    -0.02   0.02   0.12     0.03  -0.00   0.06
    52   1     0.10   0.09  -0.07    -0.01  -0.00   0.12     0.03  -0.01   0.07
    53   1     0.12   0.04  -0.10    -0.02   0.03   0.14     0.03   0.00   0.08
    54   1     0.07   0.04  -0.06    -0.02   0.04   0.11     0.02   0.01   0.06
    55   6     0.11   0.05  -0.10     0.00  -0.02   0.10     0.04  -0.03   0.06
    56   1     0.10   0.04  -0.09     0.00  -0.03   0.08     0.04  -0.04   0.04
    57   1     0.14   0.05  -0.13     0.00  -0.02   0.13     0.04  -0.03   0.07
    58   1     0.11   0.09  -0.08     0.01  -0.04   0.10     0.04  -0.04   0.06
    59   6     0.06  -0.05  -0.08    -0.03   0.07   0.08     0.02   0.02   0.04
    60   1     0.05  -0.10  -0.09    -0.04   0.09   0.07     0.01   0.03   0.04
    61   1     0.03  -0.04  -0.05    -0.03   0.08   0.06     0.01   0.02   0.04
    62   1     0.08  -0.05  -0.10    -0.04   0.08   0.11     0.01   0.03   0.06
    63   6     0.11  -0.05  -0.13    -0.02   0.03   0.10     0.03  -0.00   0.06
    64   1     0.10  -0.09  -0.14    -0.03   0.05   0.09     0.02   0.00   0.05
    65   1     0.13  -0.04  -0.15    -0.02   0.04   0.13     0.03  -0.00   0.07
    66   1     0.12  -0.04  -0.14    -0.01   0.01   0.10     0.03  -0.02   0.05
    67   6     0.01  -0.04   0.04    -0.01   0.03  -0.01    -0.01   0.04  -0.01
    68   1     0.01  -0.04   0.05     0.00   0.03  -0.00    -0.00   0.05  -0.02
    69   1    -0.01  -0.02   0.04    -0.01   0.04  -0.01    -0.00   0.04  -0.01
    70   1     0.01  -0.04   0.04    -0.02   0.04  -0.02    -0.02   0.05  -0.01
    71   6     0.04  -0.05   0.01    -0.01  -0.00  -0.02    -0.03   0.04  -0.00
    72   1     0.05  -0.05  -0.01    -0.01  -0.02  -0.03    -0.03   0.02   0.01
    73   1     0.05  -0.06   0.02    -0.00  -0.00  -0.01    -0.02   0.04  -0.01
    74   1     0.05  -0.05   0.01    -0.02   0.00  -0.03    -0.04   0.04   0.00
    75   6     0.01  -0.03  -0.03    -0.04  -0.01  -0.04    -0.04   0.00   0.02
    76   1     0.00  -0.02  -0.05    -0.05  -0.01  -0.05    -0.04  -0.01   0.02
    77   1     0.02  -0.04  -0.04    -0.03  -0.02  -0.04    -0.03  -0.00   0.01
    78   1     0.02  -0.04  -0.04    -0.04  -0.01  -0.04    -0.05   0.01   0.02
    79   6    -0.01  -0.02  -0.01    -0.05   0.02  -0.03    -0.04   0.02   0.01
    80   1    -0.01  -0.02   0.01    -0.04   0.04  -0.03    -0.03   0.03   0.00
    81   1    -0.01  -0.01  -0.02    -0.06   0.02  -0.03    -0.05   0.01   0.02
    82   1     0.01  -0.03  -0.01    -0.05   0.03  -0.03    -0.05   0.03   0.01
    83   1    -0.01  -0.02   0.01     0.02  -0.01  -0.01     0.03  -0.02  -0.00
    84   6    -0.02  -0.01   0.01     0.00  -0.00  -0.03     0.01   0.05   0.02
    85   8    -0.01   0.01  -0.02     0.00  -0.00  -0.03     0.04   0.06   0.00
    86   6    -0.03  -0.01   0.03    -0.00   0.00  -0.04    -0.01   0.07   0.04
    87   1    -0.04  -0.01   0.06    -0.01   0.00  -0.04    -0.04   0.08   0.06
    88   1    -0.03  -0.04   0.03     0.00   0.01  -0.04    -0.02   0.06   0.04
    89   6    -0.02  -0.05  -0.01     0.00  -0.01  -0.03     0.01  -0.02  -0.01
    90   1    -0.01  -0.04  -0.03     0.00  -0.01  -0.03     0.04  -0.01  -0.02
    91   1    -0.02  -0.07  -0.01     0.00  -0.01  -0.03     0.00  -0.05  -0.02
    92   7    -0.02  -0.04   0.02     0.00  -0.01  -0.03    -0.01   0.01   0.02
    93   6    -0.04  -0.07   0.05    -0.00  -0.00  -0.03    -0.05  -0.01   0.03
    94   1    -0.04  -0.07   0.05    -0.00  -0.00  -0.03    -0.05  -0.01  -0.00
    95   1    -0.06  -0.10   0.03    -0.01  -0.00  -0.03    -0.08  -0.02   0.02
    96   1    -0.04  -0.07   0.08    -0.00  -0.00  -0.03    -0.05  -0.00   0.06
    97   6    -0.02   0.02   0.01     0.00   0.01  -0.04     0.01   0.12   0.04
    98   1    -0.02   0.02   0.02     0.00   0.02  -0.04    -0.00   0.14   0.05
    99   1    -0.00   0.02  -0.02     0.01   0.01  -0.04     0.05   0.12   0.03
   100   6    -0.02   0.06   0.02    -0.01   0.01  -0.04     0.01   0.15   0.05
   101   1    -0.02   0.06   0.01    -0.00   0.00  -0.04     0.03   0.11   0.04
   102   1    -0.04   0.07   0.05    -0.01   0.01  -0.04    -0.05   0.15   0.07
   103   6    -0.01   0.11   0.01    -0.00   0.02  -0.04     0.04   0.22   0.05
   104   1    -0.02   0.11   0.02    -0.00   0.03  -0.04     0.02   0.26   0.06
   105   1     0.01   0.10  -0.02     0.01   0.02  -0.04     0.10   0.22   0.03
   106   6    -0.02   0.15   0.02    -0.01   0.02  -0.04     0.02   0.25   0.06
   107   1    -0.01   0.18   0.01    -0.01   0.03  -0.04     0.04   0.31   0.06
   108   1    -0.01   0.15   0.01    -0.01   0.01  -0.04     0.05   0.22   0.05
   109   1    -0.04   0.15   0.05    -0.02   0.02  -0.04    -0.03   0.25   0.08
   110   6     0.03   0.00  -0.02     0.09  -0.09   0.09    -0.08  -0.04  -0.00
   111   9     0.00   0.00  -0.06    -0.09   0.01  -0.06    -0.07  -0.03   0.02
   112   9     0.08  -0.02  -0.05     0.37  -0.24  -0.02    -0.12  -0.01   0.01
   113   9     0.04   0.01   0.03     0.10  -0.08   0.43    -0.10  -0.06  -0.05
   114   1    -0.01  -0.02   0.07     0.01  -0.02  -0.07     0.03  -0.04  -0.10
[...]
 -0.00001222,-0.00001008,-0.00000008,-0.00000828,0.00001046,-0.00000232
 ,-0.00111058,-0.00004964,-0.00046201,-0.00004442,0.00001328,0.00000832
 ,-0.00000280,0.00002813,0.00025181,0.00016729,0.00003248,0.00017618,0.
 00008346,-0.00010439,0.00002411,0.00008288,-0.00020925,-0.00003160,-0.
 00009850,0.00016281,-0.00005941,-0.00024576,-0.00003441,-0.00027759,-0
 .00002549,0.00023755,0.00002232,0.00005751,-0.00006218,-0.00006934,0.0
 0019806,0.00009133,0.00030583,-0.00018740,-0.00012804,-0.00001421,-0.0
 0002284,0.00000695,-0.00014162,-0.00005618,0.00001889,-0.00002008,-0.0
 0004312,0.00002723,0.00003986,-0.00000316,0.00004550,-0.00001358,-0.00
 004562,0.00005877,-0.00003976,0.00004533,-0.00011600,0.00006409,-0.000
 01419,0.00000241,0.00003712,-0.00001152,0.00000977,0.00000213,-0.00000
 170,-0.00000297,-0.00001051,0.00001704,-0.00000394,0.00000981,-0.00000
 440,0.00002078,0.00000682,0.00001803,-0.00000407,0.00001439,-0.0000004
 1,-0.00000640,-0.00001917,-0.00000930,0.00000960,0.00000140,0.00005141
 ,-0.00002752,-0.00002692,-0.00001230,0.00001355,0.00001230,-0.00003159
 ,-0.00002221,0.00003030,0.00001557,-0.00000337,0.00001023,0.00021207,0
 .00008750,-0.00020133,0.00007872,-0.00036784,-0.00012394,-0.00013179,0
 .00007132,0.00010280,0.00006032,0.00000009,0.00001185,0.00000042,-0.00
 000415,-0.00000461,0.00000158,0.00000130,-0.00000158,0.00000153,-0.000
 00542,0.00000172,0.00000213,0.00000194,0.00000471,-0.00000789,-0.00000
 521,0.00000042,0.00000866,0.00000180,0.00000243,-0.00000029,-0.0000072
 7,0.00000023,-0.00000088,0.00000483,0.00000029,0.00000479,-0.00000923,
 0.00000890,-0.00000723,0.00000057,-0.00000332,0.00000278,0.00000383,-0
 .00000601,0.00000593,-0.00000607,0.00000537,0.00000402,-0.00000960,0.0
 0000225,-0.00000552,0.00000407,-0.00000507,0.00000566,-0.00000831,0.00
 000106,0.00000021,0.00000721,0.00000997,0.00000852,-0.00002166,-0.0000
 1966,0.00000830,-0.00001147,-0.00000483,-0.00000519,0.00000689,-0.0000
 0187,0.00000070,0.00000583,0.00000305,0.00000853,-0.00001559,-0.000006
 59,0.00000463,0.00000589,0.00001435,0.00000830,-0.00001124,-0.00000956
 ,-0.00000444,0.00000516,0.00000398,-0.00004207,0.00006504,0.00008978,0
 .00001086,-0.00004615,-0.00001334,0.00000874,-0.00000563,-0.00000586,0
 .00002305,-0.00000843,-0.00002095,-0.00005788,0.00009811,0.00007084,0.
 00003044,-0.00002056,-0.00000558,-0.00000076,-0.00007021,-0.00002315,0
 .00001963,-0.00001540,-0.00002393,-0.00000206,-0.00002470,-0.00005213,
 -0.00000745,0.00016803,0.00017401,-0.00007967,-0.00015663,-0.00015501,
 -0.00000501,-0.00002376,-0.00000698,-0.00000222,-0.00000667,0.00000291
 ,-0.00000799,0.00000304,-0.00000365,-0.00002601,0.00003314,0.00001822,
 0.00001557,-0.00001600,0.00002860,0.00000590,-0.00000926,0.00000157,0.
 00007625,-0.00006348,-0.00006101,-0.00000804,0.00002879,0.00003522,0.0
 0000454,-0.00000505,0.00000134,0.00000278,0.00000143,-0.00001390,-0.00
 000521,-0.00000918,-0.00000075,0.00000501,0.00001456,-0.00000059,-0.00
 001317,-0.00000747,-0.00000429,0.00001218,0.,0.00000423,0.00001200,-0.
 00000233,0.00000548,0.00000305,-0.00000038,-0.00001345,0.00000143,0.00
 000331,0.00000387,0.00001148,0.00000084,-0.00001047,-0.00000995,-0.000
 00160,0.00000330,0.00000160,0.00000231,-0.00000113,-0.00000895,0.00000
 048,0.00000066,-0.00001734,0.00000226,0.00000558,0.00001348,-0.0000070
 1,-0.00000706,0.00000672,0.00000204,0.00000117,0.00358333,-0.00318773,
 -0.07517013,0.03636154,-0.01695275,-0.00043514,-0.04873836,0.03414915,
 -0.01491135,0.00398692,-0.00479601,0.08105532,-0.00036785,0.00030752,-
 0.00066233,0.00001088,0.00002033,-0.00001361,0.00000764,0.00001095,-0.
 00000866,0.00001793,-0.00001881,-0.00004867,-0.00001432,-0.00001226,0.
 00004872,-0.00131430,0.00055612,0.00121414,-0.00075327,-0.02067328,-0.
 01389867,-0.06864997,-0.06937342,-0.02100285,0.00836439,0.01597990,0.0
 0643327,0.00083876,-0.00036653,0.00528279,-0.00000536,0.00000083,0.000
 00857,-0.00000423,0.00000169,-0.00000577,0.00005010,-0.00003470,0.0000
 2002,-0.00043812,0.00140083,-0.00130018,-0.00066330,0.00079532,-0.0020
 6552,0.00034520,0.00075287,0.00043244,-0.00009020,-0.00001333,0.000105
 98,-0.00215280,-0.00535612,0.00459995,0.00058481,0.00021939,-0.0005566
 7,-0.00010119,0.00001410,-0.00008151,-0.00002811,0.00020942,-0.0000258
 6,-0.00005297,-0.00009640,0.00004171,0.00014911,-0.00030747,0.00013839
 ,0.00000874,-0.00010348,0.00018513,-0.00000068,0.00005344,-0.00004803,
 -0.00007242,-0.00006457,0.00007502,-0.00001111,0.00000719,-0.00005199,
 0.00000847,0.00000179,0.00000681,0.00001870,0.00000143,0.00003557,0.00
 000608,0.00001102,-0.00002295,0.00002554,0.00001691,0.00000205,-0.0000
 5361,-0.00010342,0.00001996,-0.00001459,-0.00030610,0.00004400,-0.0000
 2851,0.00037310,-0.00013096,-0.00001316,-0.00000451,-0.00000738,-0.000
 00248,-0.00000194,0.00000201,0.00000444,-0.00000097,-0.00000371,-0.000
 00160,0.00000598,-0.00000225,-0.00000360,0.00000311,-0.00000749,-0.000
 00267,-0.00000189,-0.00000125,0.00000158,0.00000446,0.00000040,-0.0000
 0030,-0.00000119,0.00000170,0.00000016,-0.00000658,0.00000032,-0.00000
 126,0.00000325,-0.00000217,-0.00000017,0.00000019,-0.00000096,-0.00000
 006,0.00000102,-0.00000189,-0.00000301,0.00000036,0.00000155,0.0000007
 0,0.00000029,0.00000012,0.00000139,0.00000324,0.00000167,-0.00000023,-
 0.00000065,-0.00000101,0.00000487,0.00001780,0.00000845,0.00000336,-0.
 00000110,-0.00000648,-0.00001023,0.00001071,-0.00000255,0.00000661,-0.
 00000187,0.00001085,-0.00001801,0.00003839,-0.00001409,0.00000260,-0.0
 0004973,0.00002224,-0.00001744,0.00002591,0.00000811,0.00002770,-0.000
 00092,0.00000051,0.00001869,0.00009479,-0.00001723,-0.00000288,-0.0000
 1041,-0.00000551,0.00002421,0.00001816,0.00003019,-0.00001043,-0.00000
 004,-0.00001731,0.00001466,-0.00004106,-0.00024603,-0.00000941,0.00000
 246,-0.00005829,0.00007560,0.00001514,0.00006189,-0.00012022,0.0000470
 5,0.00019491,-0.00000247,-0.00000649,0.00000059,-0.00000077,0.00000131
 ,0.00000253,0.00000332,-0.00000059,-0.00000046,-0.00000450,-0.00000049
 ,-0.00000032,-0.00000574,-0.00000627,-0.00000166,0.00000050,0.,-0.0000
 0137,-0.00000134,0.00000166,0.00000205,-0.00000070,-0.00000200,0.00000
 427,-0.00000553,-0.00000242,0.00000503,0.00000053,0.00000030,-0.000000
 56,-0.00000020,0.00000084,-0.00000186,0.00000138,-0.00000329,0.0000025
 1,0.00000008,-0.00000332,0.00000774,-0.00000103,0.00000100,-0.00000090
 ,0.00000057,-0.00000073,-0.00000096,-0.00000313,-0.00000365,-0.0000005
 6,0.00000705,0.00001171,0.00003520,0.00009379,0.00000168,0.00002754,-0
 .00004045,-0.00000162,-0.00001535,-0.00002810,0.00005261,-0.00002135,0
 .00001476,-0.00001104,0.00000072,0.00000088,-0.00000952,0.00000200,-0.
 00000564,0.00006098,-0.00002812,-0.00000434,0.00000672,-0.00000368,-0.
 00000819,-0.00000349,-0.00000074,-0.00001556,0.00002362,0.00002931,0.0
 0003221,-0.00002499,-0.00003102,-0.00004115,-0.00001338,0.00000045,-0.
 00000750,0.00001587,0.00000652,0.00002726,-0.00002262,0.00000740,-0.00
 000166,-0.00001650,0.00000671,-0.00000994,0.00000742,-0.00000885,0.000
 00441,-0.00000930,-0.00000098,0.00000629,0.00007181,-0.00000131,-0.000
 00632,-0.00002675,-0.00000788,0.00001498,-0.00001979,0.00001789,-0.000
 00686,-0.00000903,0.00000375,-0.00000965,0.00000547,-0.00000579,0.0000
 0295,-0.00000641,-0.00000323,0.00000584,0.00001473,0.00000632,-0.00000
 226,-0.00000044,-0.00000556,-0.00000221,-0.00001783,-0.00000718,0.0000
 0630,-0.00000089,0.00000719,0.00001502,-0.00002680,0.00002482,0.000001
 18,0.00000417,-0.00000799,0.00000030,0.00000964,0.00000093,-0.00000144
 ,-0.00000125,-0.00000338,0.06438822,0.00041261,-0.00028519,0.00044241,
 0.00001246,0.00002409,0.00001199,0.00000275,-0.00004185,-0.00000705,0.
 00000615,-0.00000656,0.00001586,-0.00002635,-0.00004173,-0.00002939,-0
 .00004838,0.00058731,0.00075885,0.00074508,-0.00908771,-0.00740250,-0.
 06977920,-0.26794509,-0.11147933,-0.00419354,-0.00564205,-0.00215675,-
 0.00030588,0.00240225,-0.00336090,-0.00000003,0.00000179,-0.00000306,0
 .00000271,-0.00000896,0.00000070,-0.00003839,0.00004009,-0.00001672,0.
 00087567,-0.00043457,0.00122535,0.00119854,-0.00039758,0.00136690,-0.0
 0031302,-0.00024094,-0.00006186,-0.00003507,-0.00005601,-0.00003168,-0
 .00460850,0.00139086,-0.00123484,0.00034090,0.00013471,-0.00021643,-0.
 00011230,-0.00000769,-0.00006427,-0.00004219,0.00010256,-0.00000351,-0
 .00006701,-0.00012523,0.00006663,0.00016204,-0.00022893,0.00003457,0.0
 0010757,-0.00003676,0.00017794,0.00001592,0.00014743,-0.00012215,-0.00
 008689,-0.00008660,0.00011055,-0.00004342,-0.00001379,-0.00006207,0.00
 003133,0.00001388,0.00001558,0.00002472,0.00001126,0.00003533,0.000009
 44,0.00003006,-0.00004223,0.00003593,0.00003020,-0.00000554,-0.0000086
 4,-0.00005954,-0.00001157,-0.00000451,-0.00003227,-0.00000699,0.000030
 77,0.00016759,0.00001418,-0.00000711,-0.00000256,-0.00000810,-0.000000
 65,-0.00000037,0.00000207,0.00000200,-0.00000164,0.00000010,-0.0000033
 2,0.00000347,-0.00000441,-0.00000298,0.00000134,-0.00000398,-0.0000027
 5,-0.00000205,-0.00000236,0.00000197,0.00000112,0.00000047,-0.00000125
 ,0.00000058,0.00000248,-0.00000140,-0.00000342,-0.00000195,0.00000090,
 0.00000136,0.00000023,0.00000160,0.00000080,0.00000039,-0.00000340,-0.
 00000079,-0.00000231,-0.00000499,-0.00000374,-0.00000260,0.00000071,0.
 00000145,0.00000271,0.00000307,0.00000345,0.00000052,-0.00000443,-0.00
 000266,-0.00000215,0.00000165,0.00001099,0.00000747,-0.00000239,-0.000
 00193,-0.00000026,-0.00000197,0.00000447,-0.00000197,0.00000414,-0.000
 00226,0.00000406,-0.00001311,0.00002253,-0.00000159,-0.00000949,-0.000
 00960,0.00000392,-0.00000009,0.00000704,0.00000151,0.00000523,-0.00000
 451,0.00000133,-0.00000232,0.00000393,0.00000333,-0.00000044,-0.000003
 34,0.00000227,0.00000490,0.00000077,0.00000238,-0.00000269,0.00000375,
 -0.00000121,0.00000142,0.00001349,0.00001611,-0.00003314,0.00000807,0.
 00000217,0.00000549,-0.00000112,0.00000168,-0.00009514,0.00007676,-0.0
 0010371,-0.00000362,-0.00000749,0.00000121,0.00000010,0.00000215,0.000
 00097,0.00000446,0.00000068,0.00000092,-0.00000583,-0.00000302,0.00000
 021,-0.00000872,-0.00000652,-0.00000057,0.00000310,-0.00000087,-0.0000
 0128,-0.00000211,0.00000289,0.00000194,-0.00000138,-0.00000363,0.00000
 530,-0.00000376,-0.00000762,0.00000528,-0.00000006,0.00000169,-0.00000
 190,-0.00000017,0.00000360,-0.00000199,0.,-0.00000543,0.00000534,-0.00
 000024,-0.00000641,0.00000783,0.00000164,0.00000146,-0.00000066,0.0000
 0064,0.00000070,-0.00000253,-0.00000470,-0.00000491,0.00000184,-0.0000
 1772,0.00001128,0.00001248,-0.00021711,-0.00001704,-0.00011580,0.00010
 219,0.00004571,0.00013205,0.00004923,-0.00013955,0.00003887,0.00000891
 ,-0.00000803,-0.00002685,0.00000915,0.00001056,0.00001081,-0.00008290,
 0.00001375,-0.00005759,0.00001644,0.00000281,0.00002148,0.00000726,-0.
 00000957,0.00001689,0.00014395,-0.00000984,0.00010545,-0.00008367,-0.0
 0013863,-0.00010000,-0.00002432,-0.00001225,-0.00001432,0.00002562,0.0
 0003117,0.00001179,0.00005419,-0.00001386,0.00004580,0.00003014,0.0000
 4632,-0.00001581,0.00001727,-0.00001110,0.00001446,-0.00002158,0.00001
 820,0.00001194,-0.00001956,-0.00008492,-0.00000396,0.00001323,0.000048
 68,0.00001843,-0.00002213,0.00001737,-0.00003408,0.00001397,0.00000832
 ,0.00000608,0.00001481,-0.00000492,0.00000575,-0.00000435,0.00000369,0
 .00000447,-0.00001522,-0.00000394,-0.00001314,0.00000429,-0.00000284,0
 .00000999,0.00000850,0.00001879,0.00001296,-0.00000905,-0.00000507,-0.
 00000543,0.00000076,0.00009475,0.00000175,-0.00000741,-0.00002169,0.00
 000469,-0.00001215,-0.00002659,-0.00002170,0.00001102,-0.00003047,-0.0
 0000167,0.07588562,0.27977126,-0.00060498,0.00049210,-0.00051837,-0.00
 002210,-0.00001017,-0.00000325,-0.00003818,-0.00001976,0.00000611,-0.0
 0002839,0.00005409,0.00001068,0.00008817,-0.00005662,-0.00004129,0.001
 00080,0.00038374,-0.00094739,0.00157910,0.01039950,0.00684722,-0.02156
 517,-0.11145257,-0.09800786,-0.00825138,-0.01995449,-0.00515375,0.0055
 7600,-0.00295801,0.00016631,0.00001017,-0.00000507,-0.00000833,-0.0000
 0303,0.00000423,-0.00000639,-0.00001723,0.00000874,0.00007826,-0.00149
 398,0.00079303,-0.00131172,-0.00175365,0.00172825,-0.00088219,-0.00036
 400,-0.00106301,-0.00019900,-0.00001722,-0.00007840,0.00002326,0.00490
 729,-0.00046091,0.00386984,-0.00020678,0.00003186,0.00004823,-0.000015
 61,0.00000715,0.00000232,0.00000550,0.00009604,-0.00004697,-0.00000374
 ,0.00002298,-0.00000219,-0.00003737,-0.00012641,0.00007497,0.00003424,
 0.00000127,-0.00003661,0.00006590,-0.00002895,0.00000607,0.00000070,0.
 00001691,-0.00001730,-0.00002449,0.00000644,-0.00001059,0.00000901,-0.
 00000483,0.00000392,0.00000841,-0.00000931,0.00000489,0.00000414,0.000
 00038,0.00000223,0.00000148,-0.00000124,-0.00000101,-0.00003825,-0.000
 00799,0.00006158,-0.00002291,-0.00024339,0.00000595,-0.00001925,0.0002
 0964,-0.00012648,-0.00000522,-0.00000009,0.00000219,-0.00000098,0.0000
 0026,0.00000078,0.00000189,-0.00000058,-0.00000114,0.00000027,0.000000
 80,-0.00000047,-0.00000225,0.00000208,-0.00000059,0.00000008,-0.000000
 48,-0.00000061,0.00000084,0.00000258,-0.00000078,-0.00000065,-0.000000
 58,0.00000103,0.00000027,-0.00000358,-0.00000103,-0.00000070,0.0000026
 4,-0.00000128,-0.00000012,0.00000038,0.00000166,-0.00000072,0.00000040
 ,-0.00000083,-0.00000089,-0.00000043,-0.00000316,0.00000025,0.00000063
 ,0.00000476,0.00000296,0.00000059,-0.00000171,-0.00000191,0.00000029,-
 0.00000033,0.00000185,-0.00000423,-0.00001340,0.00000737,0.00000051,-0
 .00000325,-0.00000585,0.00000723,0.00000116,-0.00000406,-0.00000026,0.
 00000041,0.00002865,-0.00000854,-0.00001281,-0.00000354,-0.00000531,0.
 00001194,-0.00000980,0.00001255,0.00000781,0.00000911,0.00000502,-0.00
 000576,0.00000839,0.00005639,-0.00001059,0.00000012,-0.00001322,-0.000
 00980,0.00001692,0.00001289,0.00001583,-0.00000946,0.00000132,-0.00000
 974,0.00005817,0.00001192,-0.00003311,-0.00004455,-0.00000761,-0.00011
 039,0.00004742,0.00000641,0.00001651,-0.00012138,0.00002280,0.00011227
 ,-0.00000068,0.00000161,-0.00000026,-0.00000012,0.00000014,0.00000118,
 -0.00000056,-0.00000094,-0.00000064,0.00000017,-0.00000007,-0.00000017
 ,0.00000193,0.00000176,0.00000130,-0.00000152,0.00000121,-0.00000089,0
 .00000090,0.00000021,0.00000036,-0.00000020,-0.00000032,-0.00000154,0.
 00000170,0.00000104,-0.00000074,-0.00000002,0.00000184,0.00000066,0.00
 000042,-0.00000084,-0.00000158,-0.00000155,0.00000043,0.00000004,0.000
 00017,-0.00000019,-0.00000181,-0.00000126,0.00000005,-0.00000066,0.000
 00023,0.00000100,0.00000052,0.00000021,0.00000046,0.00000049,0.0000073
 0,0.00000483,0.00001441,0.00007555,-0.00001520,0.00001502,-0.00003006,
 -0.00001087,-0.00001949,-0.00000729,0.00005605,-0.00001392,-0.00000579
 ,-0.00002159,0.00001442,-0.00000422,-0.00000096,-0.00000326,0.00006124
 ,0.00002020,-0.00001066,-0.00000699,0.00000004,-0.00001257,-0.00000426
 ,0.00000828,-0.00000157,-0.00008003,0.00000058,-0.00005419,0.00005560,
 0.00007991,0.00004770,0.00001675,0.00000540,0.00000927,-0.00001523,-0.
 00001665,-0.00000199,-0.00005140,-0.00000972,-0.00000627,-0.00000234,-
 0.00001179,0.00000219,0.00000034,0.00000163,0.00000766,0.00000780,-0.0
 0000816,-0.00000457,-0.00000806,-0.00002069,0.00000113,0.00001350,0.00
 002329,-0.00000549,-0.00000979,0.00000008,-0.00000566,-0.00000495,0.00
 000976,0.00000062,0.00000850,-0.00000180,0.00000529,0.00000097,-0.0000
 0293,-0.00000139,0.00000006,-0.00001566,-0.00000837,0.00001187,-0.0000
 0401,0.00000064,-0.00000574,0.00002189,0.00000888,-0.00001184,-0.00000
 207,-0.00000116,0.00004633,0.00004510,0.00004753,-0.00002121,-0.000017
 75,0.00000048,-0.00001053,-0.00000695,-0.00001330,-0.00000150,-0.00002
 131,-0.00000828,0.02123997,0.12202570,0.09615393\\0.00000172,0.0000014
 8,-0.00000014,0.00000019,0.00000094,0.00000059,0.00000522,0.00000545,-
 0.00000439,0.00000066,0.00000414,-0.00000133,-0.00000624,-0.00000143,-
 0.00000026,-0.00000307,0.00000356,0.00000418,0.00000260,-0.00000369,-0
 .00000463,-0.00000909,0.00000544,0.00001236,0.00000455,-0.00000350,-0.
 00000581,-0.00000392,0.00000713,0.00000572,-0.00000079,0.00000059,-0.0
 0000125,0.00000191,0.00000093,-0.00000252,0.00000372,0.00000352,-0.000
 00185,-0.00000123,0.00000053,0.00000157,-0.00000316,0.00000106,0.00000
 291,0.00000079,0.00000158,-0.00000028,0.00000169,0.00000352,-0.0000026
 6,0.00000256,0.00000485,0.00000170,-0.00000301,-0.00000532,-0.00000017
 ,0.00000023,-0.00000030,0.00000105,-0.00000651,0.00000098,0.00000559,0
 .00000150,0.00000132,0.00000163,0.00000198,0.00000237,-0.00000108,0.00
 000047,-0.00000149,-0.00000225,0.00000104,-0.00000211,-0.00000191,0.00
 000299,-0.00000426,-0.00000233,0.00000294,0.00000243,0.00000308,0.0000
 0054,-0.00000023,-0.00000072,-0.00000389,-0.00000436,0.00000192,-0.000
 00073,-0.00000439,-0.00000689,-0.00000166,-0.00000696,-0.00000801,0.00
 000104,-0.00000176,0.00000022,-0.00000332,-0.00000363,0.00000453,-0.00
 000271,0.00000343,0.00000322,-0.00000089,-0.00000333,0.00000701,0.0000
 0074,-0.00000096,-0.00000092,0.00000052,0.00000131,0.00000045,-0.00000
 178,-0.00000012,-0.00000226,0.00000230,0.00000377,-0.00000461,-0.00000
 052,-0.00000100,-0.00000105,0.00000132,-0.00000156,0.,0.00000013,-0.00
 000163,0.00000023,0.00000130,0.00000274,-0.00000330,-0.00000006,0.0000
 0110,0.00000095,0.00000037,0.00000135,0.00000049,-0.00000207,0.0000000
 3,-0.00000087,0.00000188,0.00000285,-0.00000496,-0.00000109,0.00000127
 ,-0.00000075,0.00000184,-0.00000129,0.00000091,0.00000086,-0.00000009,
 -0.00000111,-0.00000590,-0.00000586,0.00001062,0.00000114,-0.00000009,
 -0.00000144,-0.00000072,0.00000250,0.00000235,-0.00000129,-0.00000139,
 0.00000034,0.00000320,-0.00000894,0.00000688,-0.00000694,0.00000151,0.
 00000023,-0.00000211,0.00000112,0.00000271,-0.00000025,-0.00000049,0.0
 0000179,0.00000345,-0.00000431,0.00000453,-0.00000482,0.00000231,0.000
 00418,0.00000042,0.00000287,0.00000169,-0.00000279,0.00000335,0.000000
 63,-0.00000501,0.00000152,0.00000636,-0.00000093,0.00000072,0.00000083
 ,0.00000003,-0.00000157,0.00000302,-0.00000115,0.00000072,0.00000343,-
 0.00000024,-0.00000908,0.00000347,0.00000009,-0.00000190,0.,0.00000065
 ,-0.00000052,-0.00000485,0.00000216,-0.00000052,-0.00000153,0.00000007
 ,-0.00000675,0.00000341,0.00000062,-0.00000210,-0.00000117,0.00000097,
 -0.00000397,-0.00000114,0.00000132,-0.00000101,-0.00000248,0.00000356,
 -0.00000870,-0.00000812,-0.00000169,0.00000150,0.00000034,0.00000202,0
 .00000028,-0.00000007,0.00000111,-0.00000185,-0.00000151,0.00000033,-0
 .00000778,0.00000937,-0.00000190,0.00000119,-0.00000398,0.00000313,-0.
 00000296,-0.00000444,0.00000465,0.00000277,-0.00000764,-0.00000065,0.,
 0.00000172,0.00000453,-0.00000092,-0.00000453,-0.00000020,0.00000118,0
 .00000002,0.00000408,-0.00000174,0.00000176,-0.00000111,0.00000183,-0.
 00000084,-0.00000049,-0.00000043,0.00000073,0.00000673,-0.00000211,-0.
 00000739,0.00000026,0.00000164,0.00000034,-0.00000329,-0.00000144,0.00
 000553,-0.00000662,-0.00000341,-0.00000030,0.00000695,-0.00000662,-0.0
 0000049,-0.00000802,0.00000280,-0.00000021,-0.00000096,-0.00000268,0.0
 0000376,0.00000199,0.00000009,0.00000224,-0.00000599,-0.00000124,-0.00
 000088,0.00000187,0.00000102,0.00000069,0.00000079,0.00000303,-0.00000
 030,0.00000037,0.00000494,-0.00000018,0.00000176,0.00000151,0.00000080
 ,-0.00000076,-0.00000014,0.00000001,-0.00000504,0.00000204,-0.00000542
 ,0.00000342,0.00000306,0.00000247,0.00000112,0.00000274,-0.00000071,0.
 00000549,0.00000316,0.00000043,-0.00000365,0.00000479,0.00000157,-0.00
 000107,0.00000187,-0.00000061,-0.00000020,0.00000365,-0.00000020,0.000
 00550,0.00000473,-0.00000344,0.00000228,0.00000031,-0.00000192,0.00000
 144,0.00000400,-0.00000976,0.00000346,0.00000316,-0.00000646,-0.000001
 01,0.00000038,0.00000169\\\@
 The archive entry for this job was punched.


 GOD DOES NOT PLAY WITH DICE.
               -- A. EINSTEIN
 Job cpu time:       2 days  3 hours 15 minutes 11.1 seconds.
 Elapsed time:       0 days  3 hours 15 minutes 45.6 seconds.
 File lengths (MBytes):  RWF=  10098 Int=      0 D2E=      0 Chk=     55 Scr=      1
 Normal termination of Gaussian 16 at Sat Dec  7 22:04:49 2024.
