/mnt/lustre/scratch/nvme/SLURM/9663524/usccqdma.pkuHsvVyye
OMP_STACKSIZE=0m
GAUSS_PDEF=16
GAUSS_MDEF=65536MB
GAUSS_RDEF=SCF=Direct
 Entering Gaussian System, Link 0=g16.exe
 Initial command:
 /opt/cesga/2020/software/Core/g16/c1/l1.exe "/mnt/lustre/scratch/nvme/SLURM/9663524/usccqdma.pkuHsvVyye/Gau-3062407.inp" -scrdir="/mnt/lustre/scratch/nvme/SLURM/9663524/usccqdma.pkuHsvVyye/"
 Default is to use a total of  16 processors:
                               16 via shared-memory
                                1 via Linda
 Entering Link 1 = /opt/cesga/2020/software/Core/g16/c1/l1.exe PID=   3062435.
  
 Copyright (c) 1988-2019, Gaussian, Inc.  All Rights Reserved.
  
 This is part of the Gaussian(R) 16 program.  It is based on
 the Gaussian(R) 09 system (copyright 2009, Gaussian, Inc.),
 the Gaussian(R) 03 system (copyright 2003, Gaussian, Inc.),
 the Gaussian(R) 98 system (copyright 1998, Gaussian, Inc.),
 the Gaussian(R) 94 system (copyright 1995, Gaussian, Inc.),
 the Gaussian 92(TM) system (copyright 1992, Gaussian, Inc.),
 the Gaussian 90(TM) system (copyright 1990, Gaussian, Inc.),
 the Gaussian 88(TM) system (copyright 1988, Gaussian, Inc.),
 the Gaussian 86(TM) system (copyright 1986, Carnegie Mellon
 University), and the Gaussian 82(TM) system (copyright 1983,
 Carnegie Mellon University). Gaussian is a federally registered
 trademark of Gaussian, Inc.
  
 This software contains proprietary and confidential information,
 including trade secrets, belonging to Gaussian, Inc.
  
 This software is provided under written license and may be
 used, copied, transmitted, or stored only in accord with that
 written license.
  
 The following legend is applicable only to US Government
 contracts under FAR:
  
                    RESTRICTED RIGHTS LEGEND
  
 Use, reproduction and disclosure by the US Government is
 subject to restrictions as set forth in subparagraphs (a)
 and (c) of the Commercial Computer Software - Restricted
 Rights clause in FAR 52.227-19.
  
 Gaussian, Inc.
 340 Quinnipiac St., Bldg. 40, Wallingford CT 06492
  
  
 ---------------------------------------------------------------
 Warning -- This program may not be used in any manner that
 competes with the business of Gaussian, Inc. or will provide
 assistance to any competitor of Gaussian, Inc.  The licensee
 of this program is prohibited from giving any competitor of
 Gaussian, Inc. access to this program.  By using this program,
 the user acknowledges that Gaussian, Inc. is engaged in the
 business of creating and licensing software in the field of
 computational chemistry and represents and warrants to the
 licensee that it is not a competitor of Gaussian, Inc. and that
 it will not use this program in any manner prohibited above.
 ---------------------------------------------------------------
  

 Cite this work as:
 Gaussian 16, Revision C.01,
 M. J. Frisch, G. W. Trucks, H. B. Schlegel, G. E. Scuseria, 
 M. A. Robb, J. R. Cheeseman, G. Scalmani, V. Barone, 
 G. A. Petersson, H. Nakatsuji, X. Li, M. Caricato, A. V. Marenich, 
 J. Bloino, B. G. Janesko, R. Gomperts, B. Mennucci, H. P. Hratchian, 
 J. V. Ortiz, A. F. Izmaylov, J. L. Sonnenberg, D. Williams-Young, 
 F. Ding, F. Lipparini, F. Egidi, J. Goings, B. Peng, A. Petrone, 
 T. Henderson, D. Ranasinghe, V. G. Zakrzewski, J. Gao, N. Rega, 
 G. Zheng, W. Liang, M. Hada, M. Ehara, K. Toyota, R. Fukuda, 
 J. Hasegawa, M. Ishida, T. Nakajima, Y. Honda, O. Kitao, H. Nakai, 
 T. Vreven, K. Throssell, J. A. Montgomery, Jr., J. E. Peralta, 
 F. Ogliaro, M. J. Bearpark, J. J. Heyd, E. N. Brothers, K. N. Kudin, 
 V. N. Staroverov, T. A. Keith, R. Kobayashi, J. Normand, 
 K. Raghavachari, A. P. Rendell, J. C. Burant, S. S. Iyengar, 
 J. Tomasi, M. Cossi, J. M. Millam, M. Klene, C. Adamo, R. Cammi, 
 J. W. Ochterski, R. L. Martin, K. Morokuma, O. Farkas, 
 J. B. Foresman, and D. J. Fox, Gaussian, Inc., Wallingford CT, 2019.
 
 ******************************************
 Gaussian 16:  ES64L-G16RevC.01  3-Jul-2019
                 7-Dec-2024 
 ******************************************
 Default route: SCF=Direct
 ----------------------------------------------------
 # m06/genecp scf=tight int=ultrafine 5d freq=noraman
 ----------------------------------------------------
 1/10=4,30=1,38=1/1,3;
 2/12=2,17=6,18=5,40=1/2;
 3/5=7,8=1,11=2,16=1,17=8,25=1,30=1,71=2,74=-54,75=-5,140=1/1,2,3;
 4//1;
 5/5=2,32=2,38=5,98=1/2;
 8/6=4,10=90,11=11/1;
 11/6=1,8=1,9=11,15=111,16=1/1,2,10;
 10/6=1/2;
 6/7=2,8=2,9=2,10=2,28=1/1;
 7/8=1,10=1,25=1/1,2,3,16;
 1/10=4,30=1/3;
 99//99;
 ------
 OPT-TS
 ------
 Symbolic Z-matrix:
 Charge =  0 Multiplicity = 1
 C                    -0.99268   3.02948   0.01386 
 C                    -2.66712   1.49683   0.51472 
 C                    -3.62059   2.49775   0.58271 
 C                    -3.23925   3.81611   0.33902 
 C                    -1.90998   4.08227   0.06842 
 C                     0.45232   3.233    -0.21476 
 C                     2.51628   2.19977  -0.44818 
 C                     3.16846   3.42039  -0.54384 
 C                     2.41585   4.58977  -0.48561 
 C                     1.04335   4.49453  -0.32578 
 H                    -2.90411   0.45077   0.7162 
 H                    -3.97582   4.61693   0.37618 
 H                    -1.58943   5.10573  -0.10665 
 H                     3.06086   1.2576   -0.52586 
 H                     2.90181   5.5609   -0.55633 
 H                     0.44384   5.39948  -0.27422 
 N                    -1.3883    1.75061   0.20172 
 N                     1.19795   2.11301  -0.27217 
 Ir                    0.05242   0.17946  -0.11523 
 O                     0.86273  -1.3782    2.36394 
 O                     3.92223  -0.70088  -1.27674 
 O                    -1.04562  -2.58687  -0.7961 
 B                     2.88587  -1.37478  -1.87201 
 B                     0.27999  -0.23314   1.8143 
 B                    -1.07826  -1.47662   0.05479 
 O                    -2.06635  -1.68596   1.03571 
 O                    -0.06514   0.66032   2.83094 
 C                     0.58047   0.22008   4.03182 
 C                     0.72793  -1.30978   3.78874 
 C                    -1.76078  -3.65212  -0.16311 
 C                    -2.78687  -2.8846    0.71555 
 C                     4.4376   -1.51829  -0.20518 
 C                     3.79391  -2.93238  -0.48501 
 O                     2.74457  -2.65798  -1.43649 
 C                     1.94828  -1.94813   4.42264 
 H                     2.87799  -1.5007    4.05192 
 H                     1.92306  -1.85063   5.51781 
 H                     1.97009  -3.01892   4.17823 
 C                    -0.52269  -2.09212   4.16578 
 H                    -0.67649  -2.12525   5.25293 
 H                    -1.4124   -1.66577   3.68407 
 H                    -0.40932  -3.12472   3.80668 
 C                     1.92148   0.94246   4.10338 
 H                     2.55422   0.68666   3.24135 
 H                     1.73826   2.0243    4.07453 
 H                     2.47149   0.71041   5.02552 
 C                    -0.27297   0.59708   5.22592 
 H                    -0.32087   1.68996   5.31716 
 H                    -1.29719   0.22289   5.12132 
 H                     0.15503   0.19772   6.15696 
 C                     5.95311  -1.47558  -0.28492 
 H                     6.28598  -0.43877  -0.14639 
 H                     6.40538  -2.08928   0.50657 
 H                     6.32842  -1.82015  -1.25452 
 C                     3.99475  -0.87951   1.10299 
 H                     2.90239  -0.83956   1.19287 
 H                     4.39413  -1.4277    1.96767 
 H                     4.39147   0.14525   1.14434 
 C                     4.7366   -3.90712  -1.17532 
 H                     5.56418  -4.21093  -0.5211 
 H                     4.17164  -4.80505  -1.45464 
 H                     5.15612  -3.47733  -2.09419 
 C                     3.17078  -3.58659   0.73416 
 H                     2.73195  -4.54975   0.44243 
 H                     3.93391  -3.78204   1.50193 
 H                     2.3761   -2.96763   1.17075 
 C                    -4.03656  -2.46339  -0.04757 
 H                    -4.6019   -1.747     0.56466 
 H                    -3.77023  -1.96531  -0.98965 
 H                    -4.69401  -3.31383  -0.27494 
 C                    -3.18657  -3.59594   1.99281 
 H                    -3.88662  -2.97089   2.56303 
 H                    -3.68891  -4.54787   1.76661 
 H                    -2.32142  -3.80168   2.63209 
 C                    -0.73635  -4.42972   0.65594 
 H                    -1.16801  -5.32136   1.13151 
 H                     0.07022  -4.74671  -0.01891 
 H                    -0.28525  -3.78803   1.42758 
 C                    -2.36691  -4.54397  -1.22811 
 H                    -1.56533  -5.02619  -1.8041 
 H                    -2.98276  -5.33643  -0.77864 
 H                    -2.99065  -3.97494  -1.92884 
 H                     1.20327  -0.92441  -0.36348 
 C                    -0.25095  -0.39475  -3.05559 
 O                    -0.08457   0.71947  -2.5213 
 C                    -1.64252  -0.87779  -3.40775 
 H                    -1.7326   -0.92143  -4.50719 
 H                    -1.76813  -1.90747  -3.04154 
 C                     2.14862  -0.72512  -3.11044 
 H                     2.75693  -0.90475  -4.01387 
 H                     2.10653   0.36134  -2.9782 
 N                     0.79119  -1.18311  -3.39321 
 C                     0.61598  -2.57214  -3.78232 
 H                    -0.1099   -2.66847  -4.59879 
 H                     1.5776   -2.95747  -4.13559 
 H                     0.29065  -3.17804  -2.9243 
 C                    -2.71817   0.00928  -2.8102 
 H                    -2.61229  -0.03062  -1.71345 
 H                    -2.53649   1.06105  -3.07937 
 C                    -4.13439  -0.38805  -3.18845 
 H                    -4.29871  -0.24527  -4.27066 
 H                    -4.28758  -1.46764  -3.00588 
 C                    -5.16042   0.40772  -2.39589 
 H                    -4.94763   0.28409  -1.32116 
 H                    -5.02381   1.48257  -2.60227 
 C                    -6.59614  -0.00112  -2.66732 
 H                    -6.85752   0.12536  -3.72736 
 H                    -6.75441  -1.05925  -2.41243 
 H                    -7.30055   0.59437  -2.07247 
 C                    -5.04963   2.19939   0.91269 
 F                    -5.43393   2.85619   2.01288 
 F                    -5.86381   2.59571  -0.0759 
 F                    -5.26344   0.89809   1.11724 
 C                     4.64891   3.46498  -0.75987 
 F                     4.94667   3.61422  -2.05469 
 F                     5.20019   4.49693  -0.10959 
 F                     5.24378   2.34639  -0.33643 
 

 GradGradGradGradGradGradGradGradGradGradGradGradGradGradGradGradGradGrad
 Berny optimization.
 Initialization pass.
 Trust Radius=3.00D-01 FncErr=1.00D-07 GrdErr=1.00D-07 EigMax=2.50D+02 EigMin=1.00D-04
 Number of steps in this run=      2 maximum allowed number of steps=      2.
 GradGradGradGradGradGradGradGradGradGradGradGradGradGradGradGradGradGrad

 Stoichiometry    C38H59B3F6IrN3O7
 Framework group  C1[X(C38H59B3F6IrN3O7)]
 Deg. of freedom   345
 Full point group                 C1      NOp   1
 Largest Abelian subgroup         C1      NOp   1
 Largest concise Abelian subgroup C1      NOp   1
                         Standard orientation:                         
 ---------------------------------------------------------------------
 Center     Atomic      Atomic             Coordinates (Angstroms)
 Number     Number       Type             X           Y           Z
 ---------------------------------------------------------------------
      1          6           0       -0.992681    3.029479    0.013860
      2          6           0       -2.667121    1.496829    0.514720
      3          6           0       -3.620591    2.497748    0.582710
      4          6           0       -3.239251    3.816108    0.339020
      5          6           0       -1.909981    4.082269    0.068420
      6          6           0        0.452319    3.232999   -0.214760
      7          6           0        2.516279    2.199769   -0.448180
      8          6           0        3.168459    3.420390   -0.543840
      9          6           0        2.415849    4.589769   -0.485610
     10          6           0        1.043349    4.494529   -0.325780
     11          1           0       -2.904110    0.450769    0.716200
     12          1           0       -3.975821    4.616928    0.376180
     13          1           0       -1.589431    5.105729   -0.106650
     14          1           0        3.060859    1.257600   -0.525860
     15          1           0        2.901809    5.560900   -0.556330
     16          1           0        0.443839    5.399479   -0.274220
     17          7           0       -1.388301    1.750609    0.201720
     18          7           0        1.197949    2.113009   -0.272170
     19         77           0        0.052420    0.179459   -0.115230
     20          8           0        0.862730   -1.378201    2.363940
     21          8           0        3.922230   -0.700880   -1.276740
     22          8           0       -1.045620   -2.586871   -0.796100
     23          5           0        2.885870   -1.374780   -1.872010
     24          5           0        0.279990   -0.233141    1.814300
     25          5           0       -1.078260   -1.476621    0.054790
     26          8           0       -2.066350   -1.685961    1.035710
     27          8           0       -0.065140    0.660319    2.830940
     28          6           0        0.580470    0.220079    4.031820
     29          6           0        0.727930   -1.309781    3.788740
     30          6           0       -1.760780   -3.652121   -0.163110
     31          6           0       -2.786870   -2.884601    0.715550
     32          6           0        4.437600   -1.518290   -0.205180
     33          6           0        3.793910   -2.932380   -0.485010
     34          8           0        2.744570   -2.657980   -1.436490
     35          6           0        1.948280   -1.948131    4.422640
     36          1           0        2.877990   -1.500700    4.051920
     37          1           0        1.923060   -1.850631    5.517810
     38          1           0        1.970090   -3.018921    4.178230
     39          6           0       -0.522690   -2.092121    4.165780
     40          1           0       -0.676490   -2.125251    5.252930
     41          1           0       -1.412400   -1.665771    3.684070
     42          1           0       -0.409320   -3.124721    3.806680
     43          6           0        1.921479    0.942459    4.103380
     44          1           0        2.554220    0.686660    3.241350
     45          1           0        1.738259    2.024299    4.074530
     46          1           0        2.471490    0.710409    5.025520
     47          6           0       -0.272970    0.597079    5.225920
     48          1           0       -0.320871    1.689959    5.317160
     49          1           0       -1.297190    0.222889    5.121320
     50          1           0        0.155030    0.197719    6.156960
     51          6           0        5.953110   -1.475580   -0.284920
     52          1           0        6.285980   -0.438770   -0.146390
     53          1           0        6.405380   -2.089280    0.506570
     54          1           0        6.328420   -1.820150   -1.254520
     55          6           0        3.994750   -0.879510    1.102990
     56          1           0        2.902390   -0.839560    1.192870
     57          1           0        4.394130   -1.427700    1.967670
     58          1           0        4.391470    0.145250    1.144340
     59          6           0        4.736600   -3.907120   -1.175320
     60          1           0        5.564180   -4.210930   -0.521100
     61          1           0        4.171640   -4.805050   -1.454640
     62          1           0        5.156120   -3.477330   -2.094190
     63          6           0        3.170780   -3.586590    0.734160
     64          1           0        2.731950   -4.549750    0.442430
     65          1           0        3.933910   -3.782040    1.501930
     66          1           0        2.376100   -2.967631    1.170750
     67          6           0       -4.036560   -2.463392   -0.047570
     68          1           0       -4.601900   -1.747002    0.564660
     69          1           0       -3.770230   -1.965312   -0.989650
     70          1           0       -4.694010   -3.313832   -0.274940
     71          6           0       -3.186570   -3.595941    1.992810
     72          1           0       -3.886620   -2.970892    2.563030
     73          1           0       -3.688910   -4.547872    1.766610
     74          1           0       -2.321420   -3.801681    2.632090
     75          6           0       -0.736350   -4.429721    0.655940
     76          1           0       -1.168009   -5.321361    1.131510
     77          1           0        0.070220   -4.746711   -0.018910
     78          1           0       -0.285250   -3.788031    1.427580
     79          6           0       -2.366910   -4.543971   -1.228110
     80          1           0       -1.565329   -5.026191   -1.804100
     81          1           0       -2.982759   -5.336431   -0.778640
     82          1           0       -2.990650   -3.974941   -1.928840
     83          1           0        1.203270   -0.924411   -0.363480
     84          6           0       -0.250950   -0.394751   -3.055590
     85          8           0       -0.084570    0.719469   -2.521300
     86          6           0       -1.642520   -0.877791   -3.407750
     87          1           0       -1.732600   -0.921431   -4.507190
     88          1           0       -1.768130   -1.907471   -3.041540
     89          6           0        2.148620   -0.725121   -3.110440
     90          1           0        2.756930   -0.904750   -4.013870
     91          1           0        2.106530    0.361339   -2.978200
     92          7           0        0.791190   -1.183111   -3.393210
     93          6           0        0.615980   -2.572141   -3.782320
     94          1           0       -0.109900   -2.668471   -4.598790
     95          1           0        1.577600   -2.957471   -4.135590
     96          1           0        0.290650   -3.178041   -2.924300
     97          6           0       -2.718170    0.009279   -2.810200
     98          1           0       -2.612290   -0.030621   -1.713450
     99          1           0       -2.536491    1.061049   -3.079370
    100          6           0       -4.134390   -0.388052   -3.188450
    101          1           0       -4.298710   -0.245272   -4.270660
    102          1           0       -4.287580   -1.467642   -3.005880
    103          6           0       -5.160420    0.407718   -2.395890
    104          1           0       -4.947630    0.284088   -1.321160
    105          1           0       -5.023811    1.482568   -2.602270
    106          6           0       -6.596140   -0.001122   -2.667320
    107          1           0       -6.857520    0.125358   -3.727360
    108          1           0       -6.754410   -1.059252   -2.412430
    109          1           0       -7.300550    0.594368   -2.072470
    110          6           0       -5.049631    2.199388    0.912690
    111          9           0       -5.433931    2.856188    2.012880
    112          9           0       -5.863811    2.595708   -0.075900
    113          9           0       -5.263441    0.898088    1.117240
    114          6           0        4.648909    3.464980   -0.759870
    115          9           0        4.946669    3.614220   -2.054690
    116          9           0        5.200189    4.496930   -0.109590
    117          9           0        5.243779    2.346390   -0.336430
 ---------------------------------------------------------------------
 Rotational constants (GHZ):           0.0558022           0.0392525           0.0348800
 General basis read from cards:  (5D, 7F)
 ======================================================================================================
                                       Pseudopotential Parameters
 ======================================================================================================
  Center     Atomic      Valence      Angular      Power
  Number     Number     Electrons     Momentum     of R      Exponent        Coefficient   SO-Coeffient
 ======================================================================================================
    1          6
                                   No pseudopotential on this center.
    2          6
                                   No pseudopotential on this center.
    3          6
                                   No pseudopotential on this center.
    4          6
                                   No pseudopotential on this center.
    5          6
                                   No pseudopotential on this center.
    6          6
                                   No pseudopotential on this center.
    7          6
                                   No pseudopotential on this center.
    8          6
                                   No pseudopotential on this center.
    9          6
                                   No pseudopotential on this center.
   10          6
                                   No pseudopotential on this center.
   11          1
                                   No pseudopotential on this center.
   12          1
                                   No pseudopotential on this center.
   13          1
                                   No pseudopotential on this center.
   14          1
                                   No pseudopotential on this center.
   15          1
                                   No pseudopotential on this center.
   16          1
                                   No pseudopotential on this center.
   17          7
                                   No pseudopotential on this center.
   18          7
                                   No pseudopotential on this center.
   19         77           17
                                      G and up 
                                                     1      823.5880147       -0.15780140    0.00000000
                                                     2      364.6613336    -1517.52704460    0.00000000
                                                     2       55.7082801     -316.53065290    0.00000000
                                                     2       12.0464544      -91.88809410    0.00000000
                                                     2        3.5120610       -9.22417730    0.00000000
                                      S - G
                                                     0      188.0490770        3.15780140    0.00000000
                                                     1      340.4194712       26.83225770    0.00000000
                                                     2      128.2373673      800.42500070    0.00000000
                                                     2       33.8644961      369.40506830    0.00000000
                                                     2        4.7560005      242.41718990    0.00000000
                                                     2        3.9649974     -118.21732820    0.00000000
                                      P - G
                                                     0      289.7291139        2.15780140    0.00000000
                                                     1       87.4633789       61.96786100    0.00000000
                                                     2       30.4363766      269.05819860    0.00000000
                                                     2        4.0553412      231.16547930    0.00000000
                                                     2        3.5525341     -133.69526670    0.00000000
                                      D - G
                                                     0      136.4017106        3.15780140    0.00000000
                                                     1       95.0776925       45.93498030    0.00000000
                                                     2       49.2258410      359.03446680    0.00000000
                                                     2       15.0874145      176.47401190    0.00000000
                                                     2        4.0405764       54.51552860    0.00000000
                                      F - G
                                                     0      127.3507908        3.95461970    0.00000000
                                                     1       66.2364374       52.97736550    0.00000000
                                                     2       34.4299229      274.86433830    0.00000000
                                                     2       10.1995721      137.20473380    0.00000000
                                                     2        2.5409702       14.86333050    0.00000000
   20          8
                                   No pseudopotential on this center.
   21          8
                                   No pseudopotential on this center.
   22          8
                                   No pseudopotential on this center.
   23          5
                                   No pseudopotential on this center.
   24          5
                                   No pseudopotential on this center.
   25          5
                                   No pseudopotential on this center.
   26          8
                                   No pseudopotential on this center.
   27          8
                                   No pseudopotential on this center.
   28          6
                                   No pseudopotential on this center.
   29          6
                                   No pseudopotential on this center.
   30          6
                                   No pseudopotential on this center.
   31          6
                                   No pseudopotential on this center.
   32          6
                                   No pseudopotential on this center.
   33          6
                                   No pseudopotential on this center.
   34          8
                                   No pseudopotential on this center.
   35          6
                                   No pseudopotential on this center.
   36          1
                                   No pseudopotential on this center.
   37          1
                                   No pseudopotential on this center.
   38          1
                                   No pseudopotential on this center.
   39          6
                                   No pseudopotential on this center.
   40          1
                                   No pseudopotential on this center.
   41          1
                                   No pseudopotential on this center.
   42          1
                                   No pseudopotential on this center.
   43          6
                                   No pseudopotential on this center.
   44          1
                                   No pseudopotential on this center.
   45          1
                                   No pseudopotential on this center.
   46          1
                                   No pseudopotential on this center.
   47          6
                                   No pseudopotential on this center.
   48          1
                                   No pseudopotential on this center.
   49          1
                                   No pseudopotential on this center.
   50          1
                                   No pseudopotential on this center.
   51          6
                                   No pseudopotential on this center.
   52          1
                                   No pseudopotential on this center.
   53          1
                                   No pseudopotential on this center.
   54          1
                                   No pseudopotential on this center.
   55          6
                                   No pseudopotential on this center.
   56          1
                                   No pseudopotential on this center.
   57          1
                                   No pseudopotential on this center.
   58          1
                                   No pseudopotential on this center.
   59          6
                                   No pseudopotential on this center.
   60          1
                                   No pseudopotential on this center.
   61          1
                                   No pseudopotential on this center.
   62          1
                                   No pseudopotential on this center.
   63          6
                                   No pseudopotential on this center.
   64          1
                                   No pseudopotential on this center.
   65          1
                                   No pseudopotential on this center.
   66          1
                                   No pseudopotential on this center.
   67          6
                                   No pseudopotential on this center.
   68          1
                                   No pseudopotential on this center.
   69          1
                                   No pseudopotential on this center.
   70          1
                                   No pseudopotential on this center.
   71          6
                                   No pseudopotential on this center.
   72          1
                                   No pseudopotential on this center.
   73          1
                                   No pseudopotential on this center.
   74          1
                                   No pseudopotential on this center.
   75          6
                                   No pseudopotential on this center.
   76          1
                                   No pseudopotential on this center.
   77          1
                                   No pseudopotential on this center.
   78          1
                                   No pseudopotential on this center.
   79          6
                                   No pseudopotential on this center.
   80          1
                                   No pseudopotential on this center.
   81          1
                                   No pseudopotential on this center.
   82          1
                                   No pseudopotential on this center.
   83          1
                                   No pseudopotential on this center.
   84          6
                                   No pseudopotential on this center.
   85          8
                                   No pseudopotential on this center.
   86          6
                                   No pseudopotential on this center.
   87          1
                                   No pseudopotential on this center.
   88          1
                                   No pseudopotential on this center.
   89          6
                                   No pseudopotential on this center.
   90          1
                                   No pseudopotential on this center.
   91          1
                                   No pseudopotential on this center.
   92          7
                                   No pseudopotential on this center.
   93          6
                                   No pseudopotential on this center.
   94          1
                                   No pseudopotential on this center.
   95          1
                                   No pseudopotential on this center.
   96          1
                                   No pseudopotential on this center.
   97          6
                                   No pseudopotential on this center.
   98          1
                                   No pseudopotential on this center.
   99          1
                                   No pseudopotential on this center.
  100          6
                                   No pseudopotential on this center.
  101          1
                                   No pseudopotential on this center.
  102          1
                                   No pseudopotential on this center.
  103          6
                                   No pseudopotential on this center.
  104          1
                                   No pseudopotential on this center.
  105          1
                                   No pseudopotential on this center.
  106          6
                                   No pseudopotential on this center.
  107          1
                                   No pseudopotential on this center.
  108          1
                                   No pseudopotential on this center.
  109          1
                                   No pseudopotential on this center.
  110          6
                                   No pseudopotential on this center.
  111          9
                                   No pseudopotential on this center.
  112          9
                                   No pseudopotential on this center.
  113          9
                                   No pseudopotential on this center.
  114          6
                                   No pseudopotential on this center.
  115          9
                                   No pseudopotential on this center.
  116          9
                                   No pseudopotential on this center.
  117          9
                                   No pseudopotential on this center.
 ======================================================================================================
 There are   997 symmetry adapted cartesian basis functions of A   symmetry.
 There are   938 symmetry adapted basis functions of A   symmetry.
   938 basis functions,  1875 primitive gaussians,   997 cartesian basis functions
   225 alpha electrons      225 beta electrons
       nuclear repulsion energy     10543.0957761350 Hartrees.
 NAtoms=  117 NActive=  117 NUniq=  117 SFac= 1.00D+00 NAtFMM=   60 NAOKFM=T Big=T
 Integral buffers will be    131072 words long.
 Raffenetti 2 integral format.
 Two-electron integral symmetry is turned on.
 One-electron integrals computed using PRISM.
   1 Symmetry operations used in ECPInt.
 ECPInt:  NShTT=   62835 NPrTT=  387974 LenC2=   46483 LenP2D=  141772.
 LDataN:  DoStor=T MaxTD1= 6 Len=  172
 NBasis=   938 RedAO= T EigKep=  4.45D-04  NBF=   938
 NBsUse=   938 1.00D-06 EigRej= -1.00D+00 NBFU=   938
 Defaulting to unpruned grid for atomic number  77.
 ExpMin= 2.90D-02 ExpMax= 7.00D+03 ExpMxC= 1.05D+03 IAcc=3 IRadAn=         5 AccDes= 0.00D+00
 Harris functional with IExCor= 1009 and IRadAn=       5 diagonalized for initial guess.
 HarFok:  IExCor= 1009 AccDes= 0.00D+00 IRadAn=         5 IDoV= 1 UseB2=F ITyADJ=14
 ICtDFT=  3500011 ScaDFX=  1.000000  1.000000  1.000000  1.000000
 Defaulting to unpruned grid for atomic number  77.
 FoFCou: FMM=F IPFlag=           0 FMFlag=      100000 FMFlg1=        2001
         NFxFlg=           0 DoJE=T BraDBF=F KetDBF=T FulRan=T
         wScrn=  0.000000 ICntrl=       500 IOpCl=  0 I1Cent=   200000004 NGrid=           0
         NMat0=    1 NMatS0=      1 NMatT0=    0 NMatD0=    1 NMtDS0=    0 NMtDT0=    0
 Petite list used in FoFCou.
 Requested convergence on RMS density matrix=1.00D-08 within 128 cycles.
 Requested convergence on MAX density matrix=1.00D-06.
 Requested convergence on             energy=1.00D-06.
 No special actions if energy rises.
 Defaulting to unpruned grid for atomic number  77.
 Defaulting to unpruned grid for atomic number  77.
 Defaulting to unpruned grid for atomic number  77.
 Defaulting to unpruned grid for atomic number  77.
 Defaulting to unpruned grid for atomic number  77.
 Defaulting to unpruned grid for atomic number  77.
 Defaulting to unpruned grid for atomic number  77.
 Defaulting to unpruned grid for atomic number  77.
 Defaulting to unpruned grid for atomic number  77.
 Defaulting to unpruned grid for atomic number  77.
 Defaulting to unpruned grid for atomic number  77.
 Defaulting to unpruned grid for atomic number  77.
 Defaulting to unpruned grid for atomic number  77.
 Defaulting to unpruned grid for atomic number  77.
 Defaulting to unpruned grid for atomic number  77.
 Defaulting to unpruned grid for atomic number  77.
 SCF Done:  E(RM06) =  -2951.42778941     A.U. after   16 cycles
            NFock= 16  Conv=0.82D-08     -V/T= 2.0310
 DoSCS=F DFT=T ScalE2(SS,OS)=  1.000000  1.000000
 Range of M.O.s used for correlation:     1   938
 NBasis=   938 NAE=   225 NBE=   225 NFC=     0 NFV=     0
 NROrb=    938 NOA=   225 NOB=   225 NVA=   713 NVB=   713

 **** Warning!!: The largest alpha MO coefficient is  0.10281479D+02

   1 Symmetry operations used in ECPInt.
 ECPInt:  NShTT=   62835 NPrTT=  387974 LenC2=   46483 LenP2D=  141772.
 LDataN:  DoStor=T MaxTD1= 7 Len=  274
 Number of processors reduced to   6 by ecpmxn.
 Symmetrizing basis deriv contribution to polar:
 IMax=3 JMax=2 DiffMx= 0.00D+00
 G2DrvN: will do   118 centers at a time, making    1 passes.
 Calling FoFCou, ICntrl=  3107 FMM=T I1Cent=   0 AccDes= 0.00D+00.
 Defaulting to unpruned grid for atomic number  77.
 Defaulting to unpruned grid for atomic number  77.
 Defaulting to unpruned grid for atomic number  77.
 Defaulting to unpruned grid for atomic number  77.
 Defaulting to unpruned grid for atomic number  77.
 Defaulting to unpruned grid for atomic number  77.
 Defaulting to unpruned grid for atomic number  77.
 Defaulting to unpruned grid for atomic number  77.
 Defaulting to unpruned grid for atomic number  77.
 Defaulting to unpruned grid for atomic number  77.
 Defaulting to unpruned grid for atomic number  77.
 Defaulting to unpruned grid for atomic number  77.
 Defaulting to unpruned grid for atomic number  77.
 Defaulting to unpruned grid for atomic number  77.
 Defaulting to unpruned grid for atomic number  77.
 Defaulting to unpruned grid for atomic number  77.
 End of G2Drv F.D. properties file   721 does not exist.
 End of G2Drv F.D. properties file   722 does not exist.
 End of G2Drv F.D. properties file   788 does not exist.
          IDoAtm=11111111111111111111111111111111111111111111111111
          IDoAtm=11111111111111111111111111111111111111111111111111
          IDoAtm=11111111111111111
          Differentiating once with respect to electric field.
                with respect to dipole field.
          Differentiating once with respect to nuclear coordinates.
 Defaulting to unpruned grid for atomic number  77.
 CalDSu exits because no D1Ps are significant.
 Defaulting to unpruned grid for atomic number  77.
 Defaulting to unpruned grid for atomic number  77.
 Defaulting to unpruned grid for atomic number  77.
 Defaulting to unpruned grid for atomic number  77.
 Defaulting to unpruned grid for atomic number  77.
 Defaulting to unpruned grid for atomic number  77.
 Defaulting to unpruned grid for atomic number  77.
 Defaulting to unpruned grid for atomic number  77.
 Defaulting to unpruned grid for atomic number  77.
 Defaulting to unpruned grid for atomic number  77.
 Defaulting to unpruned grid for atomic number  77.
 Defaulting to unpruned grid for atomic number  77.
 Defaulting to unpruned grid for atomic number  77.
 Defaulting to unpruned grid for atomic number  77.
 Defaulting to unpruned grid for atomic number  77.
 Defaulting to unpruned grid for atomic number  77.
          There are   354 degrees of freedom in the 1st order CPHF.  IDoFFX=6 NUNeed=     3.
    351 vectors produced by pass  0 Test12= 1.60D-13 1.00D-09 XBig12= 5.80D+02 1.18D+01.
 AX will form    72 AO Fock derivatives at one time.
    351 vectors produced by pass  1 Test12= 1.60D-13 1.00D-09 XBig12= 8.20D+01 1.20D+00.
    351 vectors produced by pass  2 Test12= 1.60D-13 1.00D-09 XBig12= 1.14D+00 1.27D-01.
    351 vectors produced by pass  3 Test12= 1.60D-13 1.00D-09 XBig12= 8.12D-03 7.99D-03.
    351 vectors produced by pass  4 Test12= 1.60D-13 1.00D-09 XBig12= 3.46D-05 3.57D-04.
    311 vectors produced by pass  5 Test12= 1.60D-13 1.00D-09 XBig12= 7.53D-08 2.57D-05.
     85 vectors produced by pass  6 Test12= 1.60D-13 1.00D-09 XBig12= 1.07D-10 6.72D-07.
      3 vectors produced by pass  7 Test12= 1.60D-13 1.00D-09 XBig12= 1.36D-13 2.84D-08.
 InvSVY:  IOpt=1 It=  1 EMax= 3.91D-14
 Solved reduced A of dimension  2154 with   354 vectors.
 Isotropic polarizability for W=    0.000000      525.55 Bohr**3.
 End of Minotr F.D. properties file   721 does not exist.
 End of Minotr F.D. properties file   722 does not exist.
 End of Minotr F.D. properties file   788 does not exist.
 Hyperfine terms turned off by default for NAtoms > 100.

 **********************************************************************

            Population analysis using the SCF Density.

 **********************************************************************

 Orbital symmetries:
       Occupied  (A) (A) (A) (A) (A) (A) (A) (A) (A) (A) (A) (A)
                 (A) (A) (A) (A) (A) (A) (A) (A) (A) (A) (A) (A)
                 (A) (A) (A) (A) (A) (A) (A) (A) (A) (A) (A) (A)
                 (A) (A) (A) (A) (A) (A) (A) (A) (A) (A) (A) (A)
                 (A) (A) (A) (A) (A) (A) (A) (A) (A) (A) (A) (A)
                 (A) (A) (A) (A) (A) (A) (A) (A) (A) (A) (A) (A)
                 (A) (A) (A) (A) (A) (A) (A) (A) (A) (A) (A) (A)
                 (A) (A) (A) (A) (A) (A) (A) (A) (A) (A) (A) (A)
                 (A) (A) (A) (A) (A) (A) (A) (A) (A) (A) (A) (A)
                 (A) (A) (A) (A) (A) (A) (A) (A) (A) (A) (A) (A)
                 (A) (A) (A) (A) (A) (A) (A) (A) (A) (A) (A) (A)
                 (A) (A) (A) (A) (A) (A) (A) (A) (A) (A) (A) (A)
                 (A) (A) (A) (A) (A) (A) (A) (A) (A) (A) (A) (A)
                 (A) (A) (A) (A) (A) (A) (A) (A) (A) (A) (A) (A)
                 (A) (A) (A) (A) (A) (A) (A) (A) (A) (A) (A) (A)
                 (A) (A) (A) (A) (A) (A) (A) (A) (A) (A) (A) (A)
                 (A) (A) (A) (A) (A) (A) (A) (A) (A) (A) (A) (A)
                 (A) (A) (A) (A) (A) (A) (A) (A) (A) (A) (A) (A)
                 (A) (A) (A) (A) (A) (A) (A) (A) (A)
       Virtual   (A) (A) (A) (A) (A) (A) (A) (A) (A) (A) (A) (A)
                 (A) (A) (A) (A) (A) (A) (A) (A) (A) (A) (A) (A)
                 (A) (A) (A) (A) (A) (A) (A) (A) (A) (A) (A) (A)
                 (A) (A) (A) (A) (A) (A) (A) (A) (A) (A) (A) (A)
                 (A) (A) (A) (A) (A) (A) (A) (A) (A) (A) (A) (A)
                 (A) (A) (A) (A) (A) (A) (A) (A) (A) (A) (A) (A)
                 (A) (A) (A) (A) (A) (A) (A) (A) (A) (A) (A) (A)
                 (A) (A) (A) (A) (A) (A) (A) (A) (A) (A) (A) (A)
                 (A) (A) (A) (A) (A) (A) (A) (A) (A) (A) (A) (A)
                 (A) (A) (A) (A) (A) (A) (A) (A) (A) (A) (A) (A)
                 (A) (A) (A) (A) (A) (A) (A) (A) (A) (A) (A) (A)
                 (A) (A) (A) (A) (A) (A) (A) (A) (A) (A) (A) (A)
                 (A) (A) (A) (A) (A) (A) (A) (A) (A) (A) (A) (A)
                 (A) (A) (A) (A) (A) (A) (A) (A) (A) (A) (A) (A)
                 (A) (A) (A) (A) (A) (A) (A) (A) (A) (A) (A) (A)
                 (A) (A) (A) (A) (A) (A) (A) (A) (A) (A) (A) (A)
                 (A) (A) (A) (A) (A) (A) (A) (A) (A) (A) (A) (A)
                 (A) (A) (A) (A) (A) (A) (A) (A) (A) (A) (A) (A)
                 (A) (A) (A) (A) (A) (A) (A) (A) (A) (A) (A) (A)
                 (A) (A) (A) (A) (A) (A) (A) (A) (A) (A) (A) (A)
                 (A) (A) (A) (A) (A) (A) (A) (A) (A) (A) (A) (A)
                 (A) (A) (A) (A) (A) (A) (A) (A) (A) (A) (A) (A)
                 (A) (A) (A) (A) (A) (A) (A) (A) (A) (A) (A) (A)
                 (A) (A) (A) (A) (A) (A) (A) (A) (A) (A) (A) (A)
                 (A) (A) (A) (A) (A) (A) (A) (A) (A) (A) (A) (A)
                 (A) (A) (A) (A) (A) (A) (A) (A) (A) (A) (A) (A)
                 (A) (A) (A) (A) (A) (A) (A) (A) (A) (A) (A) (A)
                 (A) (A) (A) (A) (A) (A) (A) (A) (A) (A) (A) (A)
                 (A) (A) (A) (A) (A) (A) (A) (A) (A) (A) (A) (A)
                 (A) (A) (A) (A) (A) (A) (A) (A) (A) (A) (A) (A)
                 (A) (A) (A) (A) (A) (A) (A) (A) (A) (A) (A) (A)
                 (A) (A) (A) (A) (A) (A) (A) (A) (A) (A) (A) (A)
                 (A) (A) (A) (A) (A) (A) (A) (A) (A) (A) (A) (A)
                 (A) (A) (A) (A) (A) (A) (A) (A) (A) (A) (A) (A)
                 (A) (A) (A) (A) (A) (A) (A) (A) (A) (A) (A) (A)
                 (A) (A) (A) (A) (A) (A) (A) (A) (A) (A) (A) (A)
                 (A) (A) (A) (A) (A) (A) (A) (A) (A) (A) (A) (A)
                 (A) (A) (A) (A) (A) (A) (A) (A) (A) (A) (A) (A)
                 (A) (A) (A) (A) (A) (A) (A) (A) (A) (A) (A) (A)
                 (A) (A) (A) (A) (A) (A) (A) (A) (A) (A) (A) (A)
                 (A) (A) (A) (A) (A) (A) (A) (A) (A) (A) (A) (A)
                 (A) (A) (A) (A) (A) (A) (A) (A) (A) (A) (A) (A)
                 (A) (A) (A) (A) (A) (A) (A) (A) (A) (A) (A) (A)
                 (A) (A) (A) (A) (A) (A) (A) (A) (A) (A) (A) (A)
                 (A) (A) (A) (A) (A) (A) (A) (A) (A) (A) (A) (A)
                 (A) (A) (A) (A) (A) (A) (A) (A) (A) (A) (A) (A)
                 (A) (A) (A) (A) (A) (A) (A) (A) (A) (A) (A) (A)
                 (A) (A) (A) (A) (A) (A) (A) (A) (A) (A) (A) (A)
                 (A) (A) (A) (A) (A) (A) (A) (A) (A) (A) (A) (A)
                 (A) (A) (A) (A) (A) (A) (A) (A) (A) (A) (A) (A)
                 (A) (A) (A) (A) (A) (A) (A) (A) (A) (A) (A) (A)
                 (A) (A) (A) (A) (A) (A) (A) (A) (A) (A) (A) (A)
                 (A) (A) (A) (A) (A) (A) (A) (A) (A) (A) (A) (A)
                 (A) (A) (A) (A) (A) (A) (A) (A) (A) (A) (A) (A)
                 (A) (A) (A) (A) (A) (A) (A) (A) (A) (A) (A) (A)
                 (A) (A) (A) (A) (A) (A) (A) (A) (A) (A) (A) (A)
                 (A) (A) (A) (A) (A) (A) (A) (A) (A) (A) (A) (A)
                 (A) (A) (A) (A) (A) (A) (A) (A) (A) (A) (A) (A)
                 (A) (A) (A) (A) (A) (A) (A) (A) (A) (A) (A) (A)
                 (A) (A) (A) (A) (A)
 The electronic state is 1-A.
 Alpha  occ. eigenvalues --  -24.83369 -24.83078 -24.82963 -24.82756 -24.82706
 Alpha  occ. eigenvalues --  -24.82477 -19.21967 -19.21510 -19.19827 -19.19646
 Alpha  occ. eigenvalues --  -19.19551 -19.19467 -19.19061 -14.45799 -14.44996
 Alpha  occ. eigenvalues --  -14.42386 -10.51448 -10.51419 -10.34393 -10.32964
 Alpha  occ. eigenvalues --  -10.32805 -10.31117 -10.31097 -10.30273 -10.30196
 Alpha  occ. eigenvalues --  -10.30091 -10.29793 -10.29508 -10.29459 -10.29260
 Alpha  occ. eigenvalues --  -10.29140 -10.28956 -10.28907 -10.28830 -10.28813
 Alpha  occ. eigenvalues --  -10.26568 -10.24722 -10.24030 -10.23285 -10.23242
 Alpha  occ. eigenvalues --  -10.23020 -10.23010 -10.22935 -10.22816 -10.22543
 Alpha  occ. eigenvalues --  -10.22530 -10.22444 -10.22442 -10.22418 -10.22273
 Alpha  occ. eigenvalues --  -10.21928 -10.21920 -10.21757 -10.21643  -6.81411
 Alpha  occ. eigenvalues --   -6.78828  -6.78187  -3.60549  -2.03178  -2.02347
 Alpha  occ. eigenvalues --   -2.01953  -1.35791  -1.35728  -1.27319  -1.27197
 Alpha  occ. eigenvalues --   -1.26763  -1.26746  -1.07457  -1.05581  -1.05433
 Alpha  occ. eigenvalues --   -1.04530  -1.01025  -1.00747  -0.98634  -0.98562
 Alpha  occ. eigenvalues --   -0.98307  -0.93904  -0.86699  -0.85861  -0.84154
 Alpha  occ. eigenvalues --   -0.81164  -0.80940  -0.80522  -0.80015  -0.79896
 Alpha  occ. eigenvalues --   -0.76861  -0.75662  -0.75272  -0.74508  -0.74457
 Alpha  occ. eigenvalues --   -0.72525  -0.72130  -0.70754  -0.70525  -0.70172
 Alpha  occ. eigenvalues --   -0.69968  -0.69298  -0.68743  -0.67492  -0.67434
 Alpha  occ. eigenvalues --   -0.67339  -0.67268  -0.66419  -0.65285  -0.62090
 Alpha  occ. eigenvalues --   -0.61921  -0.61778  -0.61735  -0.61482  -0.61288
 Alpha  occ. eigenvalues --   -0.60917  -0.60709  -0.60409  -0.60291  -0.57760
 Alpha  occ. eigenvalues --   -0.56792  -0.55848  -0.54783  -0.54428  -0.54151
 Alpha  occ. eigenvalues --   -0.53997  -0.53118  -0.52809  -0.52659  -0.51633
 Alpha  occ. eigenvalues --   -0.50142  -0.49974  -0.49386  -0.49265  -0.49151
 Alpha  occ. eigenvalues --   -0.48913  -0.48841  -0.48311  -0.48120  -0.47799
 Alpha  occ. eigenvalues --   -0.47570  -0.47338  -0.46795  -0.46720  -0.46305
 Alpha  occ. eigenvalues --   -0.46252  -0.46118  -0.45889  -0.45720  -0.45649
 Alpha  occ. eigenvalues --   -0.45236  -0.45074  -0.44909  -0.44555  -0.44259
 Alpha  occ. eigenvalues --   -0.44052  -0.44016  -0.43615  -0.43332  -0.43266
 Alpha  occ. eigenvalues --   -0.43123  -0.43096  -0.42979  -0.42910  -0.42741
 Alpha  occ. eigenvalues --   -0.42646  -0.41063  -0.40867  -0.40694  -0.40640
 Alpha  occ. eigenvalues --   -0.40382  -0.40101  -0.40023  -0.40004  -0.39986
 Alpha  occ. eigenvalues --   -0.39802  -0.39760  -0.39598  -0.39499  -0.39416
 Alpha  occ. eigenvalues --   -0.39241  -0.39034  -0.38813  -0.38479  -0.38112
 Alpha  occ. eigenvalues --   -0.37570  -0.37466  -0.37182  -0.37029  -0.36983
 Alpha  occ. eigenvalues --   -0.36840  -0.36510  -0.36313  -0.36154  -0.35687
 Alpha  occ. eigenvalues --   -0.35616  -0.35537  -0.35366  -0.35065  -0.34806
 Alpha  occ. eigenvalues --   -0.34377  -0.34206  -0.34073  -0.33735  -0.33537
 Alpha  occ. eigenvalues --   -0.33267  -0.33200  -0.32978  -0.32575  -0.32291
 Alpha  occ. eigenvalues --   -0.32115  -0.31836  -0.31234  -0.31150  -0.30863
 Alpha  occ. eigenvalues --   -0.30652  -0.29920  -0.29642  -0.28221  -0.27915
 Alpha  occ. eigenvalues --   -0.27652  -0.26875  -0.26425  -0.25650  -0.25339
 Alpha  occ. eigenvalues --   -0.24643  -0.23516  -0.20744  -0.20020  -0.19531
 Alpha virt. eigenvalues --   -0.08497  -0.04658  -0.03808  -0.00346   0.03235
 Alpha virt. eigenvalues --    0.04152   0.04703   0.05056   0.06711   0.07155
 Alpha virt. eigenvalues --    0.07233   0.07774   0.09065   0.09144   0.09527
 Alpha virt. eigenvalues --    0.09969   0.10321   0.10755   0.11302   0.11371
 Alpha virt. eigenvalues --    0.11838   0.12043   0.12366   0.12568   0.12760
 Alpha virt. eigenvalues --    0.12934   0.13160   0.13312   0.13669   0.14059
 Alpha virt. eigenvalues --    0.14209   0.14414   0.14670   0.14754   0.14962
 Alpha virt. eigenvalues --    0.15151   0.15312   0.15608   0.15895   0.15918
 Alpha virt. eigenvalues --    0.16354   0.16496   0.16780   0.17033   0.17081
 Alpha virt. eigenvalues --    0.17408   0.17527   0.17620   0.17919   0.17999
 Alpha virt. eigenvalues --    0.18353   0.18638   0.18749   0.18876   0.19064
 Alpha virt. eigenvalues --    0.19125   0.19216   0.19599   0.19858   0.19919
 Alpha virt. eigenvalues --    0.20046   0.20195   0.20478   0.20676   0.20836
 Alpha virt. eigenvalues --    0.20911   0.21133   0.21360   0.21439   0.21472
 Alpha virt. eigenvalues --    0.21767   0.21877   0.21915   0.22274   0.22568
 Alpha virt. eigenvalues --    0.22667   0.22914   0.23257   0.23430   0.23755
 Alpha virt. eigenvalues --    0.23850   0.24023   0.24222   0.24505   0.24629
 Alpha virt. eigenvalues --    0.25103   0.25282   0.25502   0.25566   0.25792
 Alpha virt. eigenvalues --    0.26202   0.26467   0.26624   0.26765   0.27145
 Alpha virt. eigenvalues --    0.27347   0.27639   0.27680   0.27987   0.28168
 Alpha virt. eigenvalues --    0.28240   0.28384   0.28531   0.29115   0.29578
 Alpha virt. eigenvalues --    0.29909   0.30943   0.31242   0.31798   0.32113
 Alpha virt. eigenvalues --    0.32371   0.33173   0.33567   0.34342   0.34825
 Alpha virt. eigenvalues --    0.34954   0.35490   0.36005   0.36155   0.36858
 Alpha virt. eigenvalues --    0.37401   0.38016   0.38536   0.39030   0.39540
 Alpha virt. eigenvalues --    0.40106   0.40803   0.41811   0.42782   0.43023
 Alpha virt. eigenvalues --    0.44499   0.45990   0.46758   0.46908   0.47178
 Alpha virt. eigenvalues --    0.48014   0.48381   0.49233   0.49540   0.50068
 Alpha virt. eigenvalues --    0.50507   0.50761   0.51020   0.51322   0.51459
 Alpha virt. eigenvalues --    0.51854   0.51897   0.52107   0.52717   0.53134
 Alpha virt. eigenvalues --    0.53366   0.53704   0.54049   0.54403   0.54575
 Alpha virt. eigenvalues --    0.55295   0.55486   0.55852   0.56015   0.56351
 Alpha virt. eigenvalues --    0.56757   0.56971   0.57086   0.57520   0.57698
 Alpha virt. eigenvalues --    0.57943   0.58384   0.58516   0.59023   0.59414
 Alpha virt. eigenvalues --    0.59549   0.59870   0.59884   0.59987   0.60261
 Alpha virt. eigenvalues --    0.60483   0.60986   0.61263   0.61689   0.61793
 Alpha virt. eigenvalues --    0.62053   0.62554   0.62663   0.63207   0.63439
 Alpha virt. eigenvalues --    0.63754   0.64321   0.64649   0.64678   0.65051
 Alpha virt. eigenvalues --    0.65478   0.65818   0.66091   0.66259   0.66450
 Alpha virt. eigenvalues --    0.66820   0.67137   0.67275   0.67764   0.68013
 Alpha virt. eigenvalues --    0.68340   0.69073   0.69483   0.69858   0.70110
 Alpha virt. eigenvalues --    0.70480   0.70863   0.71041   0.71409   0.71536
 Alpha virt. eigenvalues --    0.71646   0.71916   0.72470   0.72625   0.72758
 Alpha virt. eigenvalues --    0.73210   0.73431   0.73695   0.73936   0.74513
 Alpha virt. eigenvalues --    0.74750   0.75018   0.75272   0.75441   0.76006
 Alpha virt. eigenvalues --    0.76330   0.76882   0.77329   0.77631   0.77779
 Alpha virt. eigenvalues --    0.78325   0.78610   0.78881   0.79162   0.79413
 Alpha virt. eigenvalues --    0.79978   0.80520   0.80801   0.81068   0.81846
 Alpha virt. eigenvalues --    0.82040   0.82891   0.83061   0.83504   0.83709
 Alpha virt. eigenvalues --    0.83977   0.84336   0.84583   0.84667   0.84917
 Alpha virt. eigenvalues --    0.85039   0.85188   0.85334   0.85682   0.85939
 Alpha virt. eigenvalues --    0.85996   0.86221   0.86647   0.86863   0.87167
 Alpha virt. eigenvalues --    0.87559   0.87737   0.87930   0.88162   0.88379
 Alpha virt. eigenvalues --    0.88611   0.88668   0.89146   0.89457   0.89668
 Alpha virt. eigenvalues --    0.89930   0.90194   0.90292   0.90455   0.90834
 Alpha virt. eigenvalues --    0.91218   0.91658   0.91768   0.92300   0.92534
 Alpha virt. eigenvalues --    0.92615   0.92702   0.93146   0.93490   0.93713
 Alpha virt. eigenvalues --    0.94164   0.94358   0.94388   0.94689   0.94992
 Alpha virt. eigenvalues --    0.95275   0.95518   0.95800   0.95974   0.96419
 Alpha virt. eigenvalues --    0.96592   0.97294   0.97393   0.97515   0.97926
 Alpha virt. eigenvalues --    0.98387   0.98649   0.98937   0.99155   0.99275
 Alpha virt. eigenvalues --    0.99751   1.00027   1.00772   1.00934   1.01506
 Alpha virt. eigenvalues --    1.01653   1.02463   1.02930   1.03412   1.03588
 Alpha virt. eigenvalues --    1.04465   1.05026   1.05381   1.05727   1.06057
 Alpha virt. eigenvalues --    1.06831   1.06987   1.07258   1.07624   1.08363
 Alpha virt. eigenvalues --    1.09499   1.09867   1.10174   1.11108   1.11521
 Alpha virt. eigenvalues --    1.12603   1.12749   1.13774   1.14642   1.14864
 Alpha virt. eigenvalues --    1.15247   1.15469   1.16294   1.16683   1.17120
 Alpha virt. eigenvalues --    1.17523   1.17604   1.18133   1.18657   1.19285
 Alpha virt. eigenvalues --    1.19648   1.19816   1.20245   1.20702   1.20927
 Alpha virt. eigenvalues --    1.21444   1.22009   1.22327   1.22766   1.23593
 Alpha virt. eigenvalues --    1.24261   1.24599   1.25653   1.26092   1.26753
 Alpha virt. eigenvalues --    1.27377   1.27615   1.28647   1.28685   1.29053
 Alpha virt. eigenvalues --    1.29532   1.29833   1.30486   1.30734   1.31425
 Alpha virt. eigenvalues --    1.31966   1.33188   1.33945   1.34265   1.34400
 Alpha virt. eigenvalues --    1.34524   1.34675   1.35116   1.35486   1.35568
 Alpha virt. eigenvalues --    1.35756   1.36268   1.36783   1.37808   1.37964
 Alpha virt. eigenvalues --    1.38360   1.38586   1.38880   1.39182   1.39610
 Alpha virt. eigenvalues --    1.40184   1.40267   1.40641   1.41505   1.41848
 Alpha virt. eigenvalues --    1.42478   1.43002   1.43363   1.44156   1.44706
 Alpha virt. eigenvalues --    1.44966   1.45310   1.46051   1.46293   1.46723
 Alpha virt. eigenvalues --    1.47207   1.47609   1.47845   1.48188   1.48961
 Alpha virt. eigenvalues --    1.49495   1.50203   1.50894   1.51854   1.52257
 Alpha virt. eigenvalues --    1.52940   1.53322   1.53423   1.53786   1.55033
 Alpha virt. eigenvalues --    1.55342   1.56394   1.56777   1.57421   1.57941
 Alpha virt. eigenvalues --    1.58855   1.60644   1.60878   1.61689   1.62131
 Alpha virt. eigenvalues --    1.62892   1.63250   1.63570   1.64295   1.64579
 Alpha virt. eigenvalues --    1.65173   1.65475   1.66422   1.66555   1.66908
 Alpha virt. eigenvalues --    1.68101   1.68331   1.69313   1.69475   1.70138
 Alpha virt. eigenvalues --    1.70411   1.70644   1.70938   1.72057   1.72392
 Alpha virt. eigenvalues --    1.72536   1.72843   1.73473   1.73687   1.74630
 Alpha virt. eigenvalues --    1.75333   1.75853   1.76668   1.76910   1.77173
 Alpha virt. eigenvalues --    1.77800   1.77980   1.78902   1.79311   1.79673
 Alpha virt. eigenvalues --    1.79780   1.80699   1.81645   1.81969   1.82363
 Alpha virt. eigenvalues --    1.82628   1.83072   1.83872   1.83972   1.84678
 Alpha virt. eigenvalues --    1.84739   1.85004   1.85233   1.85573   1.86317
 Alpha virt. eigenvalues --    1.86583   1.86636   1.87020   1.87343   1.87687
 Alpha virt. eigenvalues --    1.87829   1.88229   1.88311   1.88918   1.89935
 Alpha virt. eigenvalues --    1.90127   1.90285   1.90598   1.91224   1.91564
 Alpha virt. eigenvalues --    1.91888   1.92174   1.92415   1.93050   1.93252
 Alpha virt. eigenvalues --    1.93378   1.93674   1.93942   1.94250   1.94380
 Alpha virt. eigenvalues --    1.94555   1.95028   1.95248   1.95757   1.96109
 Alpha virt. eigenvalues --    1.96534   1.97114   1.97580   1.98275   1.99002
 Alpha virt. eigenvalues --    1.99372   1.99982   2.00057   2.00746   2.00876
 Alpha virt. eigenvalues --    2.01133   2.01928   2.02064   2.02494   2.02789
 Alpha virt. eigenvalues --    2.03038   2.03257   2.03443   2.03742   2.04035
 Alpha virt. eigenvalues --    2.04569   2.04716   2.05063   2.05368   2.05833
 Alpha virt. eigenvalues --    2.05942   2.06781   2.06911   2.07175   2.07409
 Alpha virt. eigenvalues --    2.07880   2.07999   2.08179   2.08464   2.09078
 Alpha virt. eigenvalues --    2.09464   2.09649   2.09791   2.10565   2.10842
 Alpha virt. eigenvalues --    2.10920   2.11169   2.11500   2.11741   2.12519
 Alpha virt. eigenvalues --    2.12660   2.12899   2.13320   2.14118   2.14240
 Alpha virt. eigenvalues --    2.14307   2.14712   2.15318   2.16154   2.16263
 Alpha virt. eigenvalues --    2.16540   2.17270   2.17825   2.18147   2.18345
 Alpha virt. eigenvalues --    2.18690   2.18864   2.19046   2.19495   2.19869
 Alpha virt. eigenvalues --    2.19978   2.20624   2.20909   2.21190   2.21569
 Alpha virt. eigenvalues --    2.21753   2.21827   2.22432   2.22668   2.22751
 Alpha virt. eigenvalues --    2.23029   2.23613   2.24165   2.24602   2.24970
 Alpha virt. eigenvalues --    2.25383   2.25943   2.26167   2.26260   2.26626
 Alpha virt. eigenvalues --    2.27346   2.27563   2.28024   2.28432   2.28696
 Alpha virt. eigenvalues --    2.29069   2.30803   2.31000   2.31611   2.32103
 Alpha virt. eigenvalues --    2.32409   2.33005   2.33265   2.33598   2.33913
 Alpha virt. eigenvalues --    2.34656   2.34987   2.35892   2.36878   2.37374
 Alpha virt. eigenvalues --    2.38256   2.38945   2.39299   2.40095   2.40466
 Alpha virt. eigenvalues --    2.40942   2.41396   2.42991   2.44321   2.44748
 Alpha virt. eigenvalues --    2.45273   2.45606   2.46587   2.46990   2.47763
 Alpha virt. eigenvalues --    2.48530   2.48731   2.49227   2.49797   2.50103
 Alpha virt. eigenvalues --    2.50515   2.51794   2.52221   2.53245   2.53520
 Alpha virt. eigenvalues --    2.54409   2.57387   2.59311   2.60050   2.60426
 Alpha virt. eigenvalues --    2.61001   2.61070   2.61734   2.62638   2.64447
 Alpha virt. eigenvalues --    2.64963   2.65096   2.65350   2.65716   2.66647
 Alpha virt. eigenvalues --    2.67045   2.67487   2.68166   2.70541   2.72009
 Alpha virt. eigenvalues --    2.75076   2.75325   2.76480   2.77014   2.77501
 Alpha virt. eigenvalues --    2.77849   2.78619   2.78855   2.79203   2.79881
 Alpha virt. eigenvalues --    2.80279   2.80738   2.80933   2.81624   2.82012
 Alpha virt. eigenvalues --    2.82113   2.82812   2.83838   2.84275   2.84566
 Alpha virt. eigenvalues --    2.87142   2.88341   2.89729   2.90974   2.92065
 Alpha virt. eigenvalues --    2.92183   2.93785   2.93962   2.94515   2.96335
 Alpha virt. eigenvalues --    2.97884   2.98660   2.99713   3.02777   3.03172
 Alpha virt. eigenvalues --    3.03447   3.05940   3.06301   3.07017   3.08712
 Alpha virt. eigenvalues --    3.09505   3.09952   3.11669   3.12040   3.12918
 Alpha virt. eigenvalues --    3.14165   3.14674   3.16279   3.21348   3.26351
 Alpha virt. eigenvalues --    3.31872   3.45411  12.56709
          Condensed to atoms (all electrons):
 Mulliken charges:
               1
     1  C    0.328714
     2  C    0.049098
     3  C   -0.067848
     4  C   -0.161771
     5  C   -0.186602
     6  C    0.317619
     7  C    0.032402
     8  C   -0.082458
     9  C   -0.158403
    10  C   -0.190986
    11  H    0.226539
    12  H    0.198865
    13  H    0.176319
    14  H    0.230377
    15  H    0.199975
    16  H    0.177851
    17  N   -0.556357
    18  N   -0.495120
    19  Ir  -0.064584
    20  O   -0.533541
    21  O   -0.510422
    22  O   -0.526400
    23  B    0.699042
    24  B    0.468220
    25  B    0.417814
    26  O   -0.544137
    27  O   -0.511226
    28  C    0.299338
    29  C    0.290533
    30  C    0.292609
    31  C    0.304090
    32  C    0.278688
    33  C    0.279178
    34  O   -0.496588
    35  C   -0.506073
    36  H    0.162204
    37  H    0.150297
    38  H    0.164600
    39  C   -0.503341
    40  H    0.146569
    41  H    0.187997
    42  H    0.153285
    43  C   -0.505769
    44  H    0.170140
    45  H    0.171567
    46  H    0.149032
    47  C   -0.513287
    48  H    0.166167
    49  H    0.175744
    50  H    0.147555
    51  C   -0.500359
    52  H    0.173724
    53  H    0.152405
    54  H    0.163101
    55  C   -0.512548
    56  H    0.212708
    57  H    0.147539
    58  H    0.153158
    59  C   -0.499861
    60  H    0.155030
    61  H    0.171415
    62  H    0.159444
    63  C   -0.504342
    64  H    0.160479
    65  H    0.140289
    66  H    0.210956
    67  C   -0.502781
    68  H    0.165367
    69  H    0.149320
    70  H    0.152159
    71  C   -0.507110
    72  H    0.166624
    73  H    0.148634
    74  H    0.166174
    75  C   -0.499340
    76  H    0.142890
    77  H    0.165794
    78  H    0.178471
    79  C   -0.511909
    80  H    0.164381
    81  H    0.153434
    82  H    0.159430
    83  H    0.035020
    84  C    0.650820
    85  O   -0.521666
    86  C   -0.403838
    87  H    0.169272
    88  H    0.184703
    89  C   -0.380680
    90  H    0.164230
    91  H    0.203260
    92  N   -0.376591
    93  C   -0.367151
    94  H    0.169589
    95  H    0.175303
    96  H    0.212806
    97  C   -0.267855
    98  H    0.149148
    99  H    0.171927
   100  C   -0.278568
   101  H    0.140148
   102  H    0.131476
   103  C   -0.265235
   104  H    0.125145
   105  H    0.142271
   106  C   -0.493053
   107  H    0.156943
   108  H    0.155364
   109  H    0.164560
   110  C    0.975502
   111  F   -0.312058
   112  F   -0.313378
   113  F   -0.308008
   114  C    0.965370
   115  F   -0.303227
   116  F   -0.317305
   117  F   -0.306429
 Sum of Mulliken charges =  -0.00000
 Mulliken charges with hydrogens summed into heavy atoms:
               1
     1  C    0.328714
     2  C    0.275637
     3  C   -0.067848
     4  C    0.037093
     5  C   -0.010283
     6  C    0.317619
     7  C    0.262779
     8  C   -0.082458
     9  C    0.041572
    10  C   -0.013135
    17  N   -0.556357
    18  N   -0.495120
    19  Ir  -0.029564
    20  O   -0.533541
    21  O   -0.510422
    22  O   -0.526400
    23  B    0.699042
    24  B    0.468220
    25  B    0.417814
    26  O   -0.544137
    27  O   -0.511226
    28  C    0.299338
    29  C    0.290533
    30  C    0.292609
    31  C    0.304090
    32  C    0.278688
    33  C    0.279178
    34  O   -0.496588
    35  C   -0.028973
    39  C   -0.015490
    43  C   -0.015030
    47  C   -0.023822
    51  C   -0.011129
    55  C    0.000857
    59  C   -0.013972
    63  C    0.007382
    67  C   -0.035936
    71  C   -0.025678
    75  C   -0.012185
    79  C   -0.034664
    84  C    0.650820
    85  O   -0.521666
    86  C   -0.049864
    89  C   -0.013189
    92  N   -0.376591
    93  C    0.190546
    97  C    0.053220
   100  C   -0.006944
   103  C    0.002181
   106  C   -0.016185
   110  C    0.975502
   111  F   -0.312058
   112  F   -0.313378
   113  F   -0.308008
   114  C    0.965370
   115  F   -0.303227
   116  F   -0.317305
   117  F   -0.306429
 APT charges:
               1
     1  C    0.124644
     2  C    0.018318
     3  C   -0.125004
     4  C    0.015002
     5  C   -0.143852
     6  C    0.222348
     7  C    0.049721
     8  C   -0.182139
     9  C    0.082861
    10  C   -0.192463
    11  H    0.125878
    12  H    0.056286
    13  H    0.041252
    14  H    0.137169
    15  H    0.058152
    16  H    0.042773
    17  N    0.031657
    18  N   -0.142442
    19  Ir  -0.543370
    20  O   -1.016471
    21  O   -0.905975
    22  O   -0.978063
    23  B    1.162588
    24  B    1.325848
    25  B    1.214667
    26  O   -0.970105
    27  O   -0.943886
    28  C    0.485004
    29  C    0.478782
    30  C    0.465408
    31  C    0.490971
    32  C    0.476301
    33  C    0.492382
    34  O   -0.917814
    35  C   -0.005098
    36  H    0.003087
    37  H   -0.020575
    38  H    0.000109
    39  C   -0.039250
    40  H   -0.029578
    41  H    0.024557
    42  H   -0.002220
    43  C   -0.016917
    44  H   -0.014019
    45  H   -0.005675
    46  H   -0.021924
    47  C   -0.010759
    48  H   -0.006123
    49  H    0.004995
    50  H   -0.016271
    51  C   -0.012767
    52  H    0.008578
    53  H   -0.008748
    54  H   -0.007339
    55  C   -0.070505
    56  H    0.059656
    57  H   -0.013526
    58  H   -0.001795
    59  C   -0.023567
    60  H   -0.014545
    61  H    0.003517
    62  H   -0.006050
    63  C   -0.030978
    64  H    0.000956
    65  H   -0.013225
    66  H    0.054244
    67  C   -0.030179
    68  H    0.003845
    69  H   -0.003575
    70  H   -0.023207
    71  C   -0.014249
    72  H    0.002454
    73  H   -0.021619
    74  H    0.005763
    75  C   -0.027334
    76  H   -0.027894
    77  H   -0.004609
    78  H    0.020549
    79  C   -0.000260
    80  H   -0.004580
    81  H   -0.017174
    82  H   -0.008307
    83  H   -0.138243
    84  C    1.085746
    85  O   -0.891225
    86  C   -0.020823
    87  H   -0.031679
    88  H    0.025799
    89  C    0.003206
    90  H   -0.034656
    91  H    0.048580
    92  N   -0.705620
    93  C    0.296582
    94  H   -0.020277
    95  H    0.006593
    96  H    0.015577
    97  C    0.070398
    98  H   -0.018621
    99  H   -0.016527
   100  C    0.096830
   101  H   -0.063861
   102  H   -0.039229
   103  C    0.108893
   104  H   -0.050329
   105  H   -0.042076
   106  C    0.071323
   107  H   -0.031443
   108  H   -0.017534
   109  H   -0.020913
   110  C    1.807236
   111  F   -0.612874
   112  F   -0.599954
   113  F   -0.522877
   114  C    1.834811
   115  F   -0.603571
   116  F   -0.608422
   117  F   -0.535114
 Sum of APT charges =  -0.00000
 APT charges with hydrogens summed into heavy atoms:
               1
     1  C    0.124644
     2  C    0.144196
     3  C   -0.125004
     4  C    0.071288
     5  C   -0.102601
     6  C    0.222348
     7  C    0.186890
     8  C   -0.182139
     9  C    0.141013
    10  C   -0.149690
    17  N    0.031657
    18  N   -0.142442
    19  Ir  -0.681613
    20  O   -1.016471
    21  O   -0.905975
    22  O   -0.978063
    23  B    1.162588
    24  B    1.325848
    25  B    1.214667
    26  O   -0.970105
    27  O   -0.943886
    28  C    0.485004
    29  C    0.478782
    30  C    0.465408
    31  C    0.490971
    32  C    0.476301
    33  C    0.492382
    34  O   -0.917814
    35  C   -0.022476
    39  C   -0.046491
    43  C   -0.058536
    47  C   -0.028158
    51  C   -0.020277
    55  C   -0.026170
    59  C   -0.040645
    63  C    0.010996
    67  C   -0.053116
    71  C   -0.027652
    75  C   -0.039288
    79  C   -0.030321
    84  C    1.085746
    85  O   -0.891225
    86  C   -0.026704
    89  C    0.017131
    92  N   -0.705620
    93  C    0.298475
    97  C    0.035249
   100  C   -0.006261
   103  C    0.016488
   106  C    0.001432
   110  C    1.807236
   111  F   -0.612874
   112  F   -0.599954
   113  F   -0.522877
   114  C    1.834811
   115  F   -0.603571
   116  F   -0.608422
   117  F   -0.535114
 Electronic spatial extent (au):  <R**2>=          35865.0922
 Charge=              0.0000 electrons
 Dipole moment (field-independent basis, Debye):
    X=              0.1389    Y=              2.3322    Z=             -0.5648  Tot=              2.4037
 Quadrupole moment (field-independent basis, Debye-Ang):
   XX=           -362.5443   YY=           -319.6182   ZZ=           -349.2300
   XY=             -6.3695   XZ=              5.9752   YZ=              2.7831
 Traceless Quadrupole moment (field-independent basis, Debye-Ang):
   XX=            -18.7468   YY=             24.1793   ZZ=             -5.4325
   XY=             -6.3695   XZ=              5.9752   YZ=              2.7831
 Octapole moment (field-independent basis, Debye-Ang**2):
  XXX=             58.8074  YYY=            244.7506  ZZZ=            -18.9689  XYY=            -23.8964
  XXY=            -35.8767  XXZ=              0.7749  XZZ=             21.8081  YZZ=            -15.3294
  YYZ=            -15.7678  XYZ=             10.9415
 Hexadecapole moment (field-independent basis, Debye-Ang**3):
 XXXX=         -22274.9745 YYYY=         -12492.6258 ZZZZ=          -9905.6652 XXXY=           -137.6349
 XXXZ=           -155.3484 YYYX=             40.7662 YYYZ=            -35.2763 ZZZX=           -182.1403
 ZZZY=             84.4706 XXYY=          -5777.7395 XXZZ=          -5365.2864 YYZZ=          -4028.5656
 XXYZ=             -5.0272 YYXZ=            -84.8501 ZZXY=              3.8204
 N-N= 1.054309577613D+04 E-N=-2.796700465189D+04  KE= 2.862801618906D+03
  Exact polarizability:     587.652      -4.318     558.302      -7.059       2.025     430.700
 Approx polarizability:     815.931      -9.395     835.718     -31.223       2.452     616.768
   1 Symmetry operations used in ECPInt.
 ECPInt:  NShTT=   62835 NPrTT=  387974 LenC2=   46483 LenP2D=  141772.
 LDataN:  DoStor=T MaxTD1= 8 Len=  415
 Calling FoFJK, ICntrl=    100127 FMM=F ISym2X=0 I1Cent= 0 IOpClX= 0 NMat=1 NMatS=1 NMatT=0.
 Defaulting to unpruned grid for atomic number  77.
 Defaulting to unpruned grid for atomic number  77.
 Defaulting to unpruned grid for atomic number  77.
 Defaulting to unpruned grid for atomic number  77.
 Defaulting to unpruned grid for atomic number  77.
 Defaulting to unpruned grid for atomic number  77.
 Defaulting to unpruned grid for atomic number  77.
 Defaulting to unpruned grid for atomic number  77.
 Defaulting to unpruned grid for atomic number  77.
 Defaulting to unpruned grid for atomic number  77.
 Defaulting to unpruned grid for atomic number  77.
 Defaulting to unpruned grid for atomic number  77.
 Defaulting to unpruned grid for atomic number  77.
 Defaulting to unpruned grid for atomic number  77.
 Defaulting to unpruned grid for atomic number  77.
 Defaulting to unpruned grid for atomic number  77.
 Full mass-weighted force constant matrix:
 Low frequencies ---   -9.4109   -0.0005    0.0002    0.0005    1.5197    3.8114
 Low frequencies ---   12.2238   20.0258   27.6382
 Diagonal vibrational polarizability:
      100.1844472      76.5374320     432.7778049
 Harmonic frequencies (cm**-1), IR intensities (KM/Mole), Raman scattering
 activities (A**4/AMU), depolarization ratios for plane and unpolarized
 incident light, reduced masses (AMU), force constants (mDyne/A),
 and normal coordinates:
                      1                      2                      3
                      A                      A                      A
 Frequencies --      9.7583                19.9496                27.5882
 Red. masses --      5.8330                 6.9170                 4.7649
 Frc consts  --      0.0003                 0.0016                 0.0021
 IR Inten    --      0.9314                 1.3282                 0.1271
  Atom AN      X      Y      Z        X      Y      Z        X      Y      Z
     1   6     0.01   0.01   0.06    -0.01  -0.01  -0.13    -0.01  -0.00   0.00
     2   6    -0.01  -0.00  -0.04     0.00   0.02  -0.00    -0.02  -0.00  -0.00
     3   6    -0.00   0.00   0.01    -0.01   0.01  -0.11    -0.02  -0.01  -0.04
     4   6     0.01   0.01   0.09    -0.03  -0.01  -0.24    -0.02  -0.01  -0.06
     5   6     0.01   0.01   0.11    -0.03  -0.02  -0.25    -0.02  -0.01  -0.03
     6   6     0.01   0.01   0.07    -0.01  -0.01  -0.10    -0.01   0.00   0.02
     7   6    -0.00   0.01  -0.01     0.01  -0.00   0.03    -0.01   0.00   0.03
     8   6     0.01   0.01   0.10     0.00  -0.00   0.01    -0.01   0.00   0.01
     9   6     0.03   0.01   0.19    -0.01  -0.01  -0.07    -0.01   0.00   0.01
    10   6     0.02   0.01   0.18    -0.02  -0.01  -0.14    -0.01   0.00   0.01
    11   1    -0.02  -0.01  -0.09     0.01   0.03   0.09    -0.02  -0.00   0.00
    12   1     0.02   0.02   0.14    -0.04  -0.02  -0.34    -0.03  -0.01  -0.09
    13   1     0.02   0.02   0.17    -0.05  -0.03  -0.36    -0.02  -0.01  -0.05
    14   1    -0.01   0.01  -0.08     0.01  -0.00   0.08    -0.01   0.00   0.03
    15   1     0.04   0.01   0.27    -0.01  -0.01  -0.09    -0.02   0.00  -0.00
    16   1     0.03   0.02   0.25    -0.02  -0.01  -0.20    -0.01  -0.00   0.01
    17   7    -0.01   0.00  -0.02     0.00   0.00  -0.02    -0.01  -0.00   0.02
    18   7    -0.00   0.01  -0.02     0.00  -0.00  -0.02    -0.01   0.00   0.03
    19  77    -0.01   0.01  -0.04     0.00  -0.00   0.02    -0.00   0.00   0.02
    20   8    -0.01   0.04  -0.02     0.04  -0.01  -0.00    -0.03  -0.04   0.01
    21   8    -0.03  -0.02  -0.02    -0.02   0.01  -0.01     0.01   0.02  -0.01
    22   8     0.02  -0.02   0.02    -0.02   0.01   0.02     0.05  -0.03   0.07
    23   5    -0.02  -0.02  -0.03    -0.02   0.02  -0.01     0.01   0.03  -0.02
    24   5     0.01   0.04  -0.04     0.02  -0.01   0.01     0.02  -0.01   0.02
    25   5     0.00   0.00  -0.01    -0.00   0.01   0.03     0.01  -0.00   0.03
    26   8     0.00   0.02  -0.01     0.01   0.00   0.05    -0.03   0.02  -0.00
    27   8     0.05   0.07  -0.06     0.03  -0.02   0.03     0.08   0.00   0.03
    28   6     0.05   0.09  -0.05     0.05  -0.03   0.01     0.08  -0.03   0.01
    29   6     0.01   0.08  -0.02     0.06  -0.03  -0.00    -0.00  -0.04   0.01
    30   6     0.03  -0.01   0.05    -0.02   0.01   0.02     0.04  -0.02   0.08
    31   6     0.02   0.00   0.02     0.00   0.01   0.05    -0.01   0.00   0.01
    32   6    -0.03  -0.03  -0.03     0.00  -0.01  -0.03     0.01   0.00  -0.02
    33   6    -0.02  -0.03  -0.05     0.00  -0.01  -0.05     0.02   0.01  -0.05
    34   8    -0.02  -0.02  -0.04    -0.01   0.01  -0.04     0.01   0.02  -0.04
    35   6     0.00   0.07  -0.02     0.07  -0.03  -0.02    -0.02  -0.10  -0.01
    36   1     0.01   0.04  -0.04     0.06  -0.02  -0.03    -0.01  -0.14  -0.03
    37   1     0.02   0.09  -0.02     0.08  -0.04  -0.02     0.00  -0.11  -0.01
    38   1    -0.02   0.06   0.01     0.07  -0.02  -0.03    -0.08  -0.10  -0.02
    39   6    -0.00   0.11   0.02     0.07  -0.04   0.01    -0.03   0.03   0.04
    40   1     0.00   0.15   0.02     0.08  -0.05   0.01    -0.03   0.05   0.04
    41   1    -0.00   0.11   0.01     0.06  -0.04   0.02    -0.02   0.06   0.04
    42   1    -0.03   0.10   0.05     0.07  -0.04  -0.00    -0.09   0.01   0.05
    43   6     0.06   0.06  -0.08     0.05  -0.02   0.00     0.12  -0.10  -0.00
    44   1     0.05   0.02  -0.07     0.04  -0.01  -0.01     0.09  -0.13  -0.01
    45   1     0.09   0.06  -0.11     0.04  -0.02   0.02     0.17  -0.09   0.01
    46   1     0.06   0.07  -0.07     0.06  -0.03  -0.01     0.12  -0.13  -0.01
    47   6     0.06   0.14  -0.06     0.06  -0.05   0.03     0.12   0.01   0.03
    48   1     0.09   0.14  -0.08     0.06  -0.05   0.04     0.17   0.01   0.03
    49   1     0.05   0.16  -0.04     0.06  -0.05   0.04     0.09   0.07   0.04
    50   1     0.06   0.15  -0.05     0.08  -0.05   0.02     0.11  -0.01   0.02
    51   6    -0.03  -0.02  -0.03     0.00  -0.01  -0.06     0.01   0.02  -0.01
    52   1    -0.03  -0.02  -0.02     0.00  -0.01  -0.05    -0.00   0.01   0.02
    53   1    -0.02  -0.03  -0.04     0.02  -0.02  -0.08     0.00   0.00  -0.02
    54   1    -0.02  -0.01  -0.03    -0.01   0.01  -0.08     0.02   0.04  -0.01
    55   6    -0.03  -0.05  -0.02     0.03  -0.04  -0.01    -0.01  -0.03  -0.01
    56   1    -0.03  -0.06  -0.03     0.03  -0.04   0.01    -0.01  -0.04  -0.02
    57   1    -0.03  -0.07  -0.03     0.04  -0.06  -0.03    -0.01  -0.04  -0.02
    58   1    -0.03  -0.05  -0.00     0.03  -0.04   0.01    -0.02  -0.02   0.01
    59   6    -0.02  -0.02  -0.05    -0.00   0.00  -0.08     0.02   0.03  -0.09
    60   1    -0.02  -0.03  -0.05     0.00  -0.00  -0.09     0.03   0.02  -0.10
    61   1    -0.01  -0.02  -0.07    -0.01   0.01  -0.09     0.03   0.04  -0.11
    62   1    -0.02  -0.01  -0.05    -0.02   0.02  -0.08     0.01   0.07  -0.08
    63   6    -0.02  -0.05  -0.05     0.01  -0.03  -0.06     0.03  -0.03  -0.07
    64   1    -0.00  -0.05  -0.06     0.01  -0.02  -0.07     0.05  -0.03  -0.08
    65   1    -0.03  -0.04  -0.05     0.02  -0.05  -0.07     0.04  -0.03  -0.07
    66   1    -0.04  -0.06  -0.06     0.02  -0.04  -0.04     0.02  -0.06  -0.05
    67   6     0.02  -0.03   0.01    -0.01   0.02   0.07     0.02  -0.03  -0.06
    68   1     0.00  -0.02  -0.02     0.00   0.02   0.09    -0.01  -0.01  -0.11
    69   1     0.01  -0.06  -0.01    -0.02   0.02   0.07     0.06  -0.06  -0.07
    70   1     0.03  -0.05   0.03    -0.02   0.02   0.08     0.04  -0.04  -0.06
    71   6     0.02   0.04   0.04     0.02  -0.00   0.05    -0.06   0.05   0.02
    72   1     0.01   0.05   0.02     0.03  -0.00   0.07    -0.09   0.06  -0.03
    73   1     0.03   0.03   0.07     0.01   0.00   0.05    -0.04   0.04   0.03
    74   1     0.02   0.07   0.05     0.03  -0.01   0.03    -0.08   0.07   0.06
    75   6     0.04   0.03   0.08    -0.01  -0.00   0.00     0.01   0.02   0.15
    76   1     0.04   0.05   0.13    -0.00  -0.01  -0.00    -0.00   0.05   0.19
    77   1     0.03  -0.00   0.09    -0.02   0.01  -0.02     0.03  -0.01   0.20
    78   1     0.04   0.06   0.05     0.01  -0.01   0.00    -0.01   0.06   0.13
    79   6     0.05  -0.05   0.08    -0.04   0.02   0.03     0.09  -0.07   0.09
    80   1     0.05  -0.06   0.10    -0.05   0.03   0.01     0.12  -0.08   0.14
    81   1     0.05  -0.05   0.10    -0.03   0.02   0.03     0.09  -0.06   0.10
    82   1     0.04  -0.08   0.06    -0.05   0.03   0.04     0.11  -0.10   0.05
    83   1    -0.00   0.01  -0.05    -0.01  -0.01   0.01    -0.00   0.00   0.01
    84   6    -0.02  -0.03  -0.03    -0.04   0.01   0.02    -0.01   0.03   0.03
    85   8    -0.03  -0.03  -0.04    -0.05   0.01   0.02    -0.01   0.03   0.03
    86   6    -0.02  -0.05  -0.01    -0.04  -0.00   0.02    -0.01   0.01   0.04
    87   1    -0.03  -0.07  -0.01    -0.04  -0.00   0.02    -0.01  -0.02   0.04
    88   1    -0.01  -0.04   0.01    -0.02  -0.01   0.02    -0.00   0.02   0.06
[...]
 22306,0.00016510,-0.00000099,0.00000064,0.00001793,0.00000878,-0.00001
 367,-0.00002125,-0.00000419,-0.00000622,0.00001884,0.00000809,0.000015
 71,-0.00000520,-0.00000483,0.00001639,0.00002268,-0.00000453,-0.000005
 38,0.00001334,0.00000542,-0.00000544,-0.00001067,0.00000226,0.00001634
 ,-0.00000433,0.00009142,0.00000156,-0.00000033,-0.00001762,-0.00005343
 ,-0.00001644,-0.00006228,0.00003700,0.00001768,0.00000750,-0.00000867,
 0.00002372,0.00002802,0.00000211,0.00001737,-0.00001624,0.00001528,0.0
 0000119,0.00001660,0.00000496,-0.00000922,-0.00000367,-0.00000632,0.00
 001285,0.00004043,0.00001404,0.00004544,-0.00004525,0.00001066,-0.0000
 8711,-0.00000029,-0.00005884,0.00002591,-0.00001394,0.00004079,0.00001
 424,-0.00001120,0.00000242,0.00009100,-0.00000362,0.00000449,-0.000011
 80,0.00000340,-0.00004827,0.00003058,0.00000623,-0.00001024,-0.0000927
 0,0.00000981,-0.00000004,-0.00000300,0.00001063,-0.00000308,0.00000604
 ,-0.00000772,-0.00000446,-0.00000262,-0.00000959,0.00000551,0.00001284
 ,-0.00000486,-0.00001323,-0.00000205,-0.00000733,-0.00000628,0.0000045
 1,0.00001284,-0.00000669,0.00001098,-0.00000214,-0.00000148,-0.0000092
 2,-0.00000128,-0.00000425,-0.00000303,-0.00000055,0.00000425,0.0000011
 0,0.00000300,-0.00000147,0.00000526,-0.00000345,-0.00000408,-0.0000023
 3,-0.00000495,0.00000008,-0.00000123,-0.00000587,0.00000394,0.00000268
 ,-0.00000076,-0.00000397,0.00000236,0.00000396,-0.00000485,-0.00000087
 ,0.00000017,-0.00000925,-0.00000156,-0.00000353,-0.00000913,0.00000470
 ,-0.00000098,0.00000737,0.00000241,0.00000233,0.00000239,-0.00000464,-
 0.00000290,-0.00000855,0.00000102,-0.00000107,0.00000671,-0.00000083,-
 0.00000553,-0.00000673,0.00000347,0.00000654,0.00000099,0.00000091,-0.
 00003054,0.00003589,0.00000982,0.00013492,-0.00005656,-0.00004771,-0.0
 0009150,-0.00004335,0.00011932,-0.00001987,0.00000070,-0.00001430,-0.0
 0000460,0.00000271,0.00000251,-0.00000488,-0.00000197,-0.00000215,0.00
 004399,0.00006226,0.00004372,-0.00000616,0.00004615,0.00003878,0.00008
 815,-0.00001684,-0.00003279,-0.00012139,-0.00005776,0.00002139,-0.0000
 1457,0.00005959,0.00000461,-0.00000908,-0.00001158,-0.00000860,0.00000
 110,0.00001000,0.00000104,-0.00000316,-0.00001366,0.00000050,0.0000021
 4,-0.00000509,-0.00001103,-0.00000094,0.00000093,0.00000356,0.00000552
 ,-0.00000465,0.00000018,0.00000385,0.00001053,0.00000726,-0.00000068,0
 .00000005,-0.00000021,-0.00000334,-0.00000521,0.00000013,-0.00000076,-
 0.00000613,-0.00000880,0.00000063,0.00000115,0.00000074,0.00000092,-0.
 00000150,0.00000079,0.00000015,0.00000420,0.00000360,0.00000049,-0.000
 00087,-0.00000241,0.00000023,-0.00000356,-0.00000069,-0.00000696,0.000
 00317,0.00000316,0.00010716,-0.00001898,-0.00009075,-0.00004161,0.0000
 2481,0.00005405,-0.00003116,0.00000520,0.00001153,-0.00002191,-0.00000
 163,0.00001724,-0.05116122,-0.07155234,-0.11985838,-0.01962668,-0.0465
 9660,-0.06668725,0.07113288,0.13193679,0.16565675,0.00037597,-0.000163
 62,-0.00005005,0.00007524,0.00012313,-0.00008085,-0.00035054,-0.000140
 41,0.00008247,0.00014931,-0.00014018,-0.00002250,-0.00036415,-0.000053
 37,0.00003467,0.00059887,0.00057870,-0.00014795,-0.00121377,0.00065512
 ,-0.00050076,-0.02356264,0.04394809,-0.01309511,-0.00626269,-0.0054599
 8,-0.00026130,-0.00166520,0.00165956,0.00109766,-0.00001423,0.00004768
 ,-0.00001562,-0.00003372,0.00001816,0.00000366,0.00010810,-0.00009106,
 0.00000904,-0.00348708,0.00085392,-0.00139023,0.00030935,0.00004477,-0
 .00032635,-0.00076394,-0.00003627,0.00020023,-0.00060000,0.00018479,0.
 00007334,-0.00037408,0.00086000,0.00022765,0.00014917,-0.00021337,0.00
 086864,0.00043020,-0.00043251,0.00053936,0.00179147,0.00085502,0.00065
 048,-0.00020252,-0.00067449,-0.00006269,-0.00156130,0.00011423,-0.0004
 9834,-0.00041523,0.00076017,-0.00134740,0.00039908,0.00095522,-0.00017
 895,-0.00031612,-0.00050102,0.00015637,0.00018464,-0.00015577,0.000711
 63,-0.00026408,0.00008260,-0.00034035,-0.00002686,0.00002218,-0.000186
 97,0.00006944,0.00019613,-0.00012619,0.00010519,0.00019751,0.00005632,
 -0.00057850,-0.00008211,-0.00022863,-0.00032947,-0.00013026,-0.0001436
 9,0.00074324,0.00001412,0.00026611,-0.00004933,-0.00004466,0.00003408,
 0.00002458,0.00003010,0.00000760,0.00002189,-0.00000527,0.00001465,0.0
 0000028,-0.00002629,0.00000284,0.00001335,0.00000078,0.00004167,-0.000
 01062,-0.00000318,0.00002442,0.00003354,0.00000232,-0.00001820,-0.0000
 0761,-0.00000601,-0.00001318,0.00005405,0.00006802,0.00008742,-0.00006
 164,-0.00000125,-0.00004155,-0.00000996,-0.00002459,-0.00005406,0.0000
 1732,-0.00002350,0.00006821,0.00005196,0.00000759,0.00004895,-0.000015
 42,-0.00000443,-0.00001928,0.00001872,0.00001143,-0.00002219,0.0000006
 1,-0.00001142,0.00004496,-0.00013128,-0.00027660,-0.00014901,0.0001489
 9,0.00005453,0.00027756,0.00006737,0.00012475,-0.00002932,0.00003869,0
 .00000649,0.00000550,0.00005611,-0.00048796,-0.00001272,-0.00001872,0.
 00021141,-0.00003863,0.00002849,0.00002432,0.00000101,-0.00086139,-0.0
 0144849,0.00143514,0.00007964,0.00005874,0.00003536,0.00002490,-0.0000
 6337,0.00002694,0.00002670,0.00006121,0.00000911,-0.00001692,-0.000017
 23,-0.00006190,0.00004013,0.00006145,0.00005631,0.00000814,0.00006393,
 -0.00000242,0.00002094,-0.00003673,0.00002894,-0.00006192,0.00000013,-
 0.00001236,-0.00002005,-0.00002870,-0.00000416,0.00002166,0.00000651,-
 0.00001219,0.00000754,0.00000742,0.00001971,-0.00002295,-0.00002312,-0
 .00001062,-0.00002373,-0.00002035,-0.00001302,0.00000246,0.00000761,0.
 00000035,-0.00001566,-0.00002553,0.00000885,0.00001136,0.00000053,0.00
 000880,-0.00001191,-0.00003166,0.00003526,0.00000458,-0.00002970,0.000
 02013,0.00000971,-0.00001043,-0.00003290,-0.00002265,0.00002243,0.0000
 0088,-0.00000838,-0.00002906,0.00002379,0.00001323,-0.00000649,-0.0000
 1924,-0.00001861,-0.00002123,-0.00000153,0.00000937,0.00000704,0.00001
 069,0.00030068,-0.00015736,-0.00018199,-0.00032307,0.00100778,0.000649
 05,-0.00007331,-0.00061410,-0.00060552,-0.00001083,-0.00005517,-0.0000
 1714,-0.00000040,-0.00000090,-0.00003206,-0.00000618,-0.00000710,0.000
 01134,-0.00001533,-0.00008748,0.00006717,0.00002938,-0.00001948,-0.000
 09264,-0.00005494,0.00005227,0.00010273,0.00051071,-0.00037167,-0.0002
 3050,0.00000624,0.00010335,0.00009689,-0.00000821,-0.00001357,0.000001
 14,0.00002711,-0.00001752,-0.00004194,-0.00003619,-0.00002340,0.000007
 90,0.00000269,0.00002377,0.00004331,0.00003322,0.00002304,-0.00003258,
 0.00001019,-0.00001884,0.00002429,0.00001309,0.00000288,-0.00001417,-0
 .00001447,-0.00000201,-0.00002927,-0.00000814,-0.00002279,0.00000345,0
 .00001029,0.00000786,0.00002640,-0.00000576,0.00002364,-0.00002838,0.0
 0000247,-0.00002319,0.00002286,0.00001040,0.00000342,-0.00000186,-0.00
 000893,-0.00000174,-0.00001962,-0.00000426,-0.00001519,0.00000198,0.00
 000303,0.00000619,0.00000797,0.00086451,0.00018959,-0.00017905,-0.0002
 6422,0.00004080,0.00016851,-0.00029633,0.00000964,-0.00006069,-0.00018
 587,-0.00017844,0.00005081,-0.15050446,0.09175696,-0.03285497,0.015805
 66,0.00116223,-0.00881937,0.02031434,-0.00576614,0.00502997,0.15130615
 ,-0.00016619,0.00035921,0.00007711,-0.00010600,-0.00004143,0.00007894,
 0.00020924,0.00001055,-0.00003815,-0.00006815,0.00019377,-0.00001064,0
 .00008085,0.00000265,-0.00000153,-0.00080470,0.00044606,0.00018322,-0.
 00209200,-0.00523682,-0.00062178,0.01439009,-0.01284123,0.00754577,0.0
 0292803,0.00207888,0.00015641,0.00004223,-0.00037254,-0.00040136,0.000
 02581,-0.00004476,0.00000710,0.00000912,-0.00001088,0.00000059,-0.0000
 5846,0.00006593,-0.00000504,0.00038740,-0.00006018,-0.00226402,-0.0006
 9065,0.00061525,0.00015789,0.00032797,0.00002230,-0.00011165,0.0005202
 8,-0.00015157,-0.00008466,0.00056773,0.00117379,-0.00062422,-0.0002701
 9,-0.00002442,-0.00051674,-0.00046847,0.00031091,-0.00020026,-0.001881
 50,-0.00039333,-0.00129114,0.00001316,0.00029426,0.00003010,0.00211057
 ,0.00061141,0.00097031,0.00045106,-0.00063578,0.00077131,-0.00005156,-
 0.00039278,0.00004347,0.00003189,0.00019569,-0.00004128,-0.00018542,0.
 00017947,-0.00033167,0.00019603,-0.00002666,0.00019335,0.00007202,-0.0
 0001582,-0.00001160,0.00001615,-0.00008078,0.00006680,-0.00000085,-0.0
 0006714,-0.00002105,0.00030930,0.00053974,0.00025070,0.00035101,0.0002
 9412,0.00008657,-0.00082278,-0.00040316,-0.00028077,0.00007822,0.00005
 540,-0.00001972,-0.00003770,-0.00004038,-0.00004353,-0.00003451,0.0000
 0388,0.00001973,0.00000478,0.00002459,-0.00001630,-0.00002574,0.000004
 44,-0.00002293,0.00000128,-0.00000287,0.00000515,-0.00002807,-0.000000
 25,0.00000687,0.00001086,0.00000420,0.00000411,0.00002364,-0.00011203,
 -0.00014251,0.00003192,0.00002383,0.00005100,-0.00001945,0.00003365,0.
 00003767,-0.00001564,0.00000385,-0.00001989,-0.00006266,-0.00001906,-0
 .00004191,0.00000936,0.00002030,0.00001070,-0.00002729,-0.00001104,0.0
 0002092,0.00000538,0.00000038,-0.00002282,0.00005175,0.00017364,0.0001
 1890,-0.00041541,-0.00151206,-0.00060303,-0.00004267,-0.00015649,0.000
 07506,-0.00001253,0.00000256,-0.00006087,0.00035440,0.00095108,0.00036
 733,0.00006967,-0.00025507,-0.00003325,-0.00008014,-0.00030440,0.00000
 541,-0.00058818,-0.00522024,0.00303351,-0.00013172,-0.00012147,-0.0000
 5079,-0.00000565,0.00006366,-0.00001337,-0.00002865,-0.00010122,-0.000
 02544,0.00001814,0.00004165,0.00006132,-0.00005845,-0.00011149,-0.0000
 8846,-0.00002629,-0.00010999,-0.00001183,-0.00001742,0.00006008,-0.000
 02037,0.00010190,0.00002254,-0.00000060,0.00000087,0.00001505,0.000000
 98,-0.00001562,0.00000267,0.00001241,0.00000307,-0.00000576,-0.0000104
 2,0.00000508,0.00000495,0.00000128,0.00000974,0.00000634,0.00000932,-0
 .00000514,0.00000272,0.00000590,0.00000539,0.00000479,-0.00000743,-0.0
 0000501,0.00000585,-0.00001173,0.00000346,0.00001723,-0.00002750,-0.00
 001468,0.00000573,-0.00000613,-0.00000402,0.00002544,0.00003696,0.0000
 2789,-0.00001385,-0.00001748,0.00000248,0.00001281,-0.00001911,-0.0000
 0439,0.00001002,0.00001408,0.00000438,0.00000404,0.00000608,-0.0000092
 6,0.00000059,-0.00001376,-0.00032226,0.00020227,0.00016599,0.00038525,
 -0.00079746,-0.00042424,-0.00001873,0.00050339,0.00032073,-0.00002019,
 0.00003291,0.00002723,-0.00000970,-0.00000445,0.00000789,0.00000156,0.
 00000758,-0.00000076,0.00001394,0.00011727,-0.00011044,-0.00003507,-0.
 00002337,0.00004596,0.00008489,-0.00009390,0.00003421,-0.00052509,0.00
 028084,0.00007719,-0.00000723,-0.00002211,-0.00003760,-0.00002120,0.00
 000323,-0.00002011,-0.00001026,0.00001721,0.00005644,0.00004073,0.0000
 1524,-0.00000106,-0.00000731,-0.00004343,-0.00002239,-0.00000614,-0.00
 001471,0.00001029,-0.00000680,0.00001986,-0.00001424,-0.00000388,0.000
 00808,0.00002178,0.00000106,0.00000086,0.00000352,0.00000647,0.0000175
 0,-0.00000016,-0.00000671,-0.00002061,-0.00001645,0.00000161,-0.000014
 57,0.00000776,-0.00000123,0.00001943,-0.00001150,-0.00000562,0.0000025
 5,0.00000720,0.00000319,-0.00000083,0.00000214,0.00000469,0.00000901,-
 0.00000107,-0.00000902,-0.00000112,0.00000073,-0.00036526,-0.00016936,
 0.00007878,0.00011156,0.00000274,-0.00006125,0.00011574,0.00001307,0.0
 0001388,0.00008129,0.00012656,-0.00002819,0.09802956,-0.21801922,0.052
 53690,0.00784592,-0.01840060,0.04207783,0.00921933,-0.08124217,-0.0056
 6933,-0.12904551,0.33736327,0.00008290,-0.00004896,-0.00001206,0.00003
 372,-0.00000878,-0.00000743,-0.00001953,0.00001727,0.00000591,0.000001
 96,-0.00003417,0.00002348,-0.00000426,0.00003350,0.00000811,0.00019297
 ,-0.00051020,-0.00008184,0.00110761,0.00123157,-0.00015668,-0.00061754
 ,0.00371936,0.00796884,-0.00132823,-0.00033373,0.00134975,0.00039938,0
 .00057992,-0.00055746,-0.00000804,0.00000709,-0.00001127,0.00000040,0.
 00000100,-0.00000428,0.00000782,-0.00002148,-0.00002396,-0.00105894,-0
 .00265771,-0.00018706,-0.00001242,-0.00006938,0.00000035,-0.00010571,-
 0.00001456,-0.00011169,-0.00008377,-0.00001895,0.00001118,-0.00066335,
 -0.00017733,0.00021099,0.00008973,0.00006602,0.00013853,0.00016261,-0.
 00005235,0.00012426,0.00058405,0.00030592,0.00050396,0.00000877,-0.000
 02428,0.00004315,-0.00050781,0.00012104,-0.00051506,-0.00015845,0.0000
 9149,-0.00037060,-0.00002269,0.00000603,-0.00006627,0.00001537,-0.0000
 1151,0.00003578,0.00010333,0.00001414,0.00021683,-0.00015022,-0.000024
 95,-0.00011685,-0.00001735,-0.00002314,-0.00002711,-0.00000934,0.00002
 210,-0.00002541,-0.00001688,-0.00000391,-0.00000888,-0.00018691,-0.000
 01810,-0.00044894,-0.00017263,-0.00010758,-0.00005691,0.00027931,-0.00
 000671,0.00025318,-0.00003246,-0.00001914,0.00001613,0.00002136,0.0000
 0275,0.00000526,0.00000968,-0.00000485,-0.00000173,0.00000415,0.000006
 25,0.00000389,0.00000824,0.00000823,0.00001817,-0.00000092,-0.00000107
 ,-0.00000082,0.00001087,-0.00000506,-0.00000546,-0.00000221,0.00001159
 ,-0.00000184,0.00003161,0.00007051,0.00007039,-0.00001699,-0.00007498,
 -0.00003088,-0.00002809,0.00001336,0.00000919,0.00000930,-0.00000158,0
 .00000760,0.00004579,0.00001715,0.00002384,-0.00001226,-0.00000076,0.0
 0000072,0.00002413,0.00000547,-0.00001358,-0.00000617,-0.00000137,0.00
 000877,-0.00010739,-0.00022565,-0.00004498,0.00032493,-0.00064794,0.00
 004129,0.00002600,0.00003301,0.00000572,-0.00001140,0.00009942,0.00005
 296,-0.00014348,-0.00025087,0.00000089,-0.00003166,0.00007207,0.000014
 04,0.00001179,0.00009245,0.00002796,0.00076202,0.00313064,-0.00202417,
 0.00006381,0.00005723,0.00001046,0.00000768,-0.00002711,0.00000763,0.0
 0000509,0.00003596,0.00001185,-0.00001707,-0.00001123,-0.00000733,0.00
 001746,0.00003152,0.00003008,0.00000629,0.00003784,0.00001163,0.000013
 36,-0.00002963,0.00001501,-0.00004058,-0.00001536,-0.00000361,0.000004
 79,-0.00000239,-0.00000186,0.00000153,-0.00000068,-0.00000238,-0.00000
 168,-0.00000028,0.00000373,0.00000171,0.00000117,0.00000089,-0.0000021
 3,0.00000296,-0.00000214,-0.00000237,-0.00000132,-0.00000137,0.0000012
 2,0.00000215,0.00000322,0.00000228,-0.00000720,0.00000331,0.00000204,-
 0.00000751,0.00000346,0.00000403,-0.00000106,0.00000103,-0.00000175,-0
 .00000521,-0.00000926,-0.00000703,0.00000260,0.00000616,-0.00000073,-0
 .00000484,0.00000364,-0.00000253,0.00000189,-0.00000265,-0.00000102,-0
 .00000070,0.00000017,0.00000766,-0.00000179,0.00000527,0.00005793,-0.0
 0003248,-0.00002077,0.00001257,0.00005495,-0.00001703,-0.00004615,-0.0
 0010907,0.00011616,-0.00000381,0.00000155,-0.00001938,0.00000040,0.000
 00387,0.00000671,-0.00000340,-0.00000366,-0.00000565,0.00003517,0.0000
 3177,0.00007564,0.00000681,0.00005073,0.00003870,0.00007792,0.00000690
 ,-0.00003163,0.00001180,-0.00009485,0.00004104,-0.00001491,0.00003702,
 -0.00000460,0.00000445,-0.00001063,0.00000324,-0.00000045,0.00000551,-
 0.00001665,-0.00001495,-0.00001407,-0.00000174,0.00000375,0.00000924,-
 0.00001049,-0.00000694,0.00000133,0.00000683,0.00000414,-0.00000880,-0
 .00000050,0.00000105,0.00000421,-0.00000059,0.00000298,0.,0.00000642,-
 0.00000354,-0.00000657,-0.00000101,-0.00000041,0.00000357,-0.00000631,
 0.00000127,0.00000108,0.00000487,0.00000045,-0.00000438,-0.00000031,-0
 .00000031,0.00000127,-0.00000006,0.00000135,0.00000034,0.00000288,-0.0
 0000103,-0.00000298,-0.00000054,-0.00000139,0.00000102,-0.00000055,-0.
 00000226,0.00002156,-0.00004978,-0.00000420,0.00000056,0.00001553,0.00
 000904,-0.00000774,0.00001857,-0.00000315,-0.00001619,0.00001177,-0.03
 448513,0.04980805,-0.09341041,-0.02031341,0.05532256,-0.04669069,0.006
 64788,-0.01409776,0.01521357,0.04914167,-0.09539328,0.11835194\\-0.000
 00338,0.00000407,-0.00000153,-0.00000355,-0.00000596,0.00000403,-0.000
 00753,0.00000062,-0.00000218,-0.00000188,-0.00000780,-0.00000041,0.000
 00017,-0.00000116,-0.00000319,-0.00000917,0.00001163,-0.00000200,-0.00
 000166,0.00001181,-0.00000584,-0.00000645,0.00000457,-0.00000301,0.000
 00377,-0.00000199,-0.00000532,-0.00001360,0.00000283,-0.00000090,0.000
 00027,-0.00000104,-0.00000146,-0.00000486,-0.00000156,-0.00000239,-0.0
 0000418,-0.00000049,-0.00000326,0.00000388,-0.00000303,0.00000307,-0.0
 0000514,0.00000333,-0.00000349,-0.00000224,-0.00000341,-0.00000319,-0.
 00000202,-0.00000040,-0.00000259,0.00000361,-0.00001930,-0.00000047,0.
 00000346,0.00001000,-0.00000468,-0.00000039,-0.00000040,-0.00000097,-0
 .00000278,0.00000206,0.00000198,-0.00000061,0.00000035,0.00000929,0.00
 000300,-0.00000439,0.00000683,-0.00000140,0.00001160,0.00000633,-0.000
 00404,-0.00001015,-0.00000948,0.00000110,-0.00000112,0.00000736,0.0000
 0089,-0.00000354,-0.00000868,0.00000352,0.00000104,0.00000794,0.000002
 57,0.00000380,0.00000586,0.00000895,0.00000446,-0.00000458,0.00000827,
 0.00000140,-0.00000069,-0.00000042,0.00001212,0.00000007,0.00000214,0.
 00000430,0.00000405,0.00000036,0.00000094,-0.00000221,0.00000014,0.000
 00273,-0.00000486,0.00000207,0.00000448,0.00000074,0.00000169,0.000004
 52,0.00000174,0.00000192,0.00000224,0.00000335,0.00000040,0.00000433,0
 .00000264,0.00000307,0.00000075,-0.00000162,0.00000085,0.00000138,0.00
 000018,0.00000217,-0.00000134,0.00000049,-0.00000319,0.00000558,-0.000
 00220,0.00000056,0.00000362,-0.00000071,-0.00000058,0.00000385,-0.0000
 0107,-0.00000154,0.00000444,-0.00000339,-0.00000082,-0.00000149,-0.000
 00454,-0.00000056,0.00000609,-0.00000055,-0.00000023,0.00000204,-0.000
 00041,0.00000141,0.00000298,0.00000046,-0.00000249,-0.00000017,-0.0000
 0627,0.00000043,0.00000960,-0.00000035,0.00000278,0.00000488,0.0000009
 8,0.00000090,0.00000547,0.00000177,0.00000302,-0.00000035,-0.00000951,
 0.00000122,0.00000069,-0.00000055,0.00000017,0.00000398,-0.00000116,0.
 00000012,0.00000657,-0.00000099,0.00000140,-0.00000076,-0.00000651,0.0
 0000372,0.00000330,0.00000337,0.00000558,0.00000462,0.00000289,-0.0000
 0020,0.00000180,0.00000347,0.00000744,0.00000212,0.00000094,0.00000259
 ,0.00000174,-0.00000036,0.00000080,0.00000308,0.00000058,-0.00000151,0
 .00000181,0.00000124,-0.00000037,-0.00000321,-0.00000186,0.00000092,-0
 .00000416,0.00000114,0.00000026,-0.00000552,0.00000347,0.00000226,-0.0
 0000240,0.00000196,0.00000044,-0.00000136,-0.00000270,0.00000078,-0.00
 000014,0.00000379,0.00000265,-0.00000215,0.00000226,0.00000695,-0.0000
 0144,0.00000550,0.00000220,0.00000235,0.00000512,0.00000266,-0.0000009
 1,0.00000334,-0.00000187,-0.00000072,0.00000281,0.00000257,-0.00000177
 ,-0.00000051,0.00000543,-0.00000033,0.00000199,0.00000462,-0.00000188,
 0.00000175,-0.00000006,-0.00000609,0.00000456,0.00000144,-0.00000216,0
 .00000113,-0.00000183,-0.00000060,0.00000101,-0.00000450,-0.00000935,-
 0.00000536,-0.00000026,0.00000965,0.00000758,0.00000051,0.00000545,0.0
 0000228,0.00000139,-0.00000560,0.00000123,-0.00000099,-0.00000653,0.00
 000040,-0.00000359,-0.00000507,-0.00000806,-0.00000113,0.00000144,0.00
 000089,0.00000103,0.00000166,0.00000145,0.00000114,-0.00000549,-0.0000
 0261,0.00000346,0.00000240,0.00000327,-0.00000179,-0.00000254,-0.00000
 137,0.00000288,-0.00000247,0.00000167,0.00000091,-0.00000232,0.0000022
 7,-0.00000105,-0.00001232,0.00000801,-0.00000284,-0.00000221,-0.000003
 88,-0.00000040,-0.00000002,-0.00000216,0.00000167,-0.00000277,-0.00000
 558,-0.00000119,-0.00000538,0.00000071,0.00000039,-0.00000692,0.000002
 63,-0.00000820,-0.00000190,0.00000818,0.00000034,-0.00000686,-0.000005
 94,-0.00000193,-0.00000744,-0.00000201,0.00000565,-0.00000032,0.000005
 57,-0.00000240,-0.00000566,-0.00000288,-0.00000178,-0.00000997,0.00000
 199,-0.00000080,-0.00000766,0.00000021,0.00000799,0.00000255,0.0000043
 8,-0.00000301,-0.00000490,-0.00000232,-0.00000760,-0.00000163,-0.00000
 323,-0.00000512,-0.00000560,0.00000297,0.00000139,0.00001314,-0.000000
 49,-0.00000661,-0.00000007,0.00000054,-0.00000548,-0.00000113,-0.00000
 798,-0.00000113,-0.00000142,-0.00000120\\\@
 The archive entry for this job was punched.


     SCHOPENHAUER'S LAW OF ENTROPY
 IF YOU PUT A SPOONFUL OF WINE IN A BARREL FULL
 OF SEWAGE, YOU GET SEWAGE.
 IF YOU PUT A SPOONFUL OF SEWAGE IN A BARREL FULL
 OF WINE, YOU GET SEWAGE.
 Job cpu time:       2 days  0 hours  6 minutes 54.5 seconds.
 Elapsed time:       0 days  3 hours  4 minutes  8.5 seconds.
 File lengths (MBytes):  RWF=  11754 Int=      0 D2E=      0 Chk=     62 Scr=      1
 Normal termination of Gaussian 16 at Sat Dec  7 21:51:46 2024.
