/mnt/lustre/scratch/nvme/SLURM/9663724/usccqdma.5EbX1iETZ3
OMP_STACKSIZE=0m
GAUSS_PDEF=16
GAUSS_MDEF=65536MB
GAUSS_RDEF=SCF=Direct
 Entering Gaussian System, Link 0=g16.exe
 Initial command:
 /opt/cesga/2020/software/Core/g16/c1/l1.exe "/mnt/lustre/scratch/nvme/SLURM/9663724/usccqdma.5EbX1iETZ3/Gau-923598.inp" -scrdir="/mnt/lustre/scratch/nvme/SLURM/9663724/usccqdma.5EbX1iETZ3/"
 Default is to use a total of  16 processors:
                               16 via shared-memory
                                1 via Linda
 Entering Link 1 = /opt/cesga/2020/software/Core/g16/c1/l1.exe PID=    923624.
  
 Copyright (c) 1988-2019, Gaussian, Inc.  All Rights Reserved.
  
 This is part of the Gaussian(R) 16 program.  It is based on
 the Gaussian(R) 09 system (copyright 2009, Gaussian, Inc.),
 the Gaussian(R) 03 system (copyright 2003, Gaussian, Inc.),
 the Gaussian(R) 98 system (copyright 1998, Gaussian, Inc.),
 the Gaussian(R) 94 system (copyright 1995, Gaussian, Inc.),
 the Gaussian 92(TM) system (copyright 1992, Gaussian, Inc.),
 the Gaussian 90(TM) system (copyright 1990, Gaussian, Inc.),
 the Gaussian 88(TM) system (copyright 1988, Gaussian, Inc.),
 the Gaussian 86(TM) system (copyright 1986, Carnegie Mellon
 University), and the Gaussian 82(TM) system (copyright 1983,
 Carnegie Mellon University). Gaussian is a federally registered
 trademark of Gaussian, Inc.
  
 This software contains proprietary and confidential information,
 including trade secrets, belonging to Gaussian, Inc.
  
 This software is provided under written license and may be
 used, copied, transmitted, or stored only in accord with that
 written license.
  
 The following legend is applicable only to US Government
 contracts under FAR:
  
                    RESTRICTED RIGHTS LEGEND
  
 Use, reproduction and disclosure by the US Government is
 subject to restrictions as set forth in subparagraphs (a)
 and (c) of the Commercial Computer Software - Restricted
 Rights clause in FAR 52.227-19.
  
 Gaussian, Inc.
 340 Quinnipiac St., Bldg. 40, Wallingford CT 06492
  
  
 ---------------------------------------------------------------
 Warning -- This program may not be used in any manner that
 competes with the business of Gaussian, Inc. or will provide
 assistance to any competitor of Gaussian, Inc.  The licensee
 of this program is prohibited from giving any competitor of
 Gaussian, Inc. access to this program.  By using this program,
 the user acknowledges that Gaussian, Inc. is engaged in the
 business of creating and licensing software in the field of
 computational chemistry and represents and warrants to the
 licensee that it is not a competitor of Gaussian, Inc. and that
 it will not use this program in any manner prohibited above.
 ---------------------------------------------------------------
  

 Cite this work as:
 Gaussian 16, Revision C.01,
 M. J. Frisch, G. W. Trucks, H. B. Schlegel, G. E. Scuseria, 
 M. A. Robb, J. R. Cheeseman, G. Scalmani, V. Barone, 
 G. A. Petersson, H. Nakatsuji, X. Li, M. Caricato, A. V. Marenich, 
 J. Bloino, B. G. Janesko, R. Gomperts, B. Mennucci, H. P. Hratchian, 
 J. V. Ortiz, A. F. Izmaylov, J. L. Sonnenberg, D. Williams-Young, 
 F. Ding, F. Lipparini, F. Egidi, J. Goings, B. Peng, A. Petrone, 
 T. Henderson, D. Ranasinghe, V. G. Zakrzewski, J. Gao, N. Rega, 
 G. Zheng, W. Liang, M. Hada, M. Ehara, K. Toyota, R. Fukuda, 
 J. Hasegawa, M. Ishida, T. Nakajima, Y. Honda, O. Kitao, H. Nakai, 
 T. Vreven, K. Throssell, J. A. Montgomery, Jr., J. E. Peralta, 
 F. Ogliaro, M. J. Bearpark, J. J. Heyd, E. N. Brothers, K. N. Kudin, 
 V. N. Staroverov, T. A. Keith, R. Kobayashi, J. Normand, 
 K. Raghavachari, A. P. Rendell, J. C. Burant, S. S. Iyengar, 
 J. Tomasi, M. Cossi, J. M. Millam, M. Klene, C. Adamo, R. Cammi, 
 J. W. Ochterski, R. L. Martin, K. Morokuma, O. Farkas, 
 J. B. Foresman, and D. J. Fox, Gaussian, Inc., Wallingford CT, 2019.
 
 ******************************************
 Gaussian 16:  ES64L-G16RevC.01  3-Jul-2019
                 7-Dec-2024 
 ******************************************
 Default route: SCF=Direct
 ----------------------------------------------------
 # m06/genecp scf=tight int=ultrafine 5d freq=noraman
 ----------------------------------------------------
 1/10=4,30=1,38=1/1,3;
 2/12=2,17=6,18=5,40=1/2;
 3/5=7,8=1,11=2,16=1,17=8,25=1,30=1,71=2,74=-54,75=-5,140=1/1,2,3;
 4//1;
 5/5=2,32=2,38=5,98=1/2;
 8/6=4,10=90,11=11/1;
 11/6=1,8=1,9=11,15=111,16=1/1,2,10;
 10/6=1/2;
 6/7=2,8=2,9=2,10=2,28=1/1;
 7/8=1,10=1,25=1/1,2,3,16;
 1/10=4,30=1/3;
 99//99;
 ------
 OPT-TS
 ------
 Symbolic Z-matrix:
 Charge =  0 Multiplicity = 1
 C                    -1.59311  -2.46137  -0.6904 
 C                     0.10834  -2.91585  -2.19339 
 C                    -0.45588  -4.13607  -2.54177 
 C                    -1.64518  -4.51267  -1.93098 
 C                    -2.21965  -3.66998  -0.99115 
 C                    -2.123    -1.51035   0.30675 
 C                    -1.85637   0.53148   1.39768 
 C                    -2.99947   0.33011   2.1574 
 C                    -3.72169  -0.84413   1.97638 
 C                    -3.27119  -1.7738    1.0538 
 H                     1.04894  -2.56807  -2.61761 
 H                    -2.12589  -5.45579  -2.18353 
 H                    -3.15578  -3.94892  -0.516 
 H                    -1.22924   1.41643   1.50759 
 H                    -4.62908  -1.0357    2.54751 
 H                    -3.82525  -2.69494   0.89902 
 N                    -0.45102  -2.10228  -1.29771 
 N                    -1.43451  -0.36142   0.48797 
 Ir                    0.29757  -0.0036   -0.77864 
 O                     3.36841   0.24429  -0.15677 
 O                     1.37094  -2.11631   1.33314 
 O                     0.38133   2.6037    0.81526 
 B                     1.17803  -0.7754    1.03838 
 B                     2.33291  -0.47535  -0.74395 
 B                     0.83575   1.88522  -0.29636 
 O                     1.74461   2.65556  -1.01005 
 O                     2.84751  -1.52635  -1.50338 
 C                     4.26764  -1.57028  -1.29551 
 C                     4.57402  -0.11197  -0.84925 
 C                     1.33053   3.65366   1.05559 
 C                     1.87754   3.9305   -0.37526 
 C                     1.31458  -2.26189   2.76406 
 C                     1.70007  -0.83699   3.25777 
 O                     1.23727  -0.00633   2.18236 
 C                     5.74835   0.04533   0.09386 
 H                     5.61943  -0.53984   1.01142 
 H                     6.68465  -0.26693  -0.39055 
 H                     5.84938   1.10133   0.37889 
 C                     4.71203   0.85417  -2.01983 
 H                     4.66112   1.88076  -1.63521 
 H                     5.66399   0.72159  -2.5517 
 H                     3.88781   0.73725  -2.73533 
 C                     4.53856  -2.60062  -0.20877 
 H                     4.10598  -3.5606   -0.51751 
 H                     5.61402  -2.7424   -0.03588 
 H                     4.05529  -2.31344   0.733 
 C                     4.94424  -1.99156  -2.58489 
 H                     4.63832  -1.36254  -3.42776 
 H                     6.03812  -1.93839  -2.48592 
 H                     4.678    -3.02958  -2.82289 
 C                    -0.11893  -2.64545   3.10951 
 H                    -0.23858  -2.86571   4.17884 
 H                    -0.82263  -1.84661   2.83828 
 H                    -0.3909   -3.54317   2.53811 
 C                     2.25629  -3.36876   3.19224 
 H                     2.27871  -3.45826   4.28805 
 H                     1.91312  -4.32646   2.78047 
 H                     3.27847  -3.1979    2.83738 
 C                     1.01961  -0.40132   4.54059 
 H                     1.27719  -1.07424   5.37131 
 H                     1.35153   0.60984   4.80923 
 H                    -0.07106  -0.37805   4.43244 
 C                     3.20331  -0.62297   3.36992 
 H                     3.39674   0.44593   3.52699 
 H                     3.63792  -1.18227   4.2094 
 H                     3.71327  -0.91324   2.44231 
 C                     1.03279   4.92364  -1.16143 
 H                     1.34616   4.89589  -2.21272 
 H                    -0.03148   4.65809  -1.12046 
 H                     1.15144   5.95137  -0.79158 
 C                     3.33621   4.34441  -0.42246 
 H                     3.63798   4.51312  -1.46483 
 H                     3.50458   5.2769    0.13597 
 H                     3.98153   3.56125  -0.0059 
 C                     2.3875    3.08886   1.99823 
 H                     2.9121    2.23768   1.54138 
 H                     3.11938   3.85321   2.29443 
 H                     1.88274   2.71592   2.89895 
 C                     0.6228    4.824     1.70764 
 H                     1.30411   5.67955   1.82143 
 H                    -0.24817   5.14745   1.12556 
 H                     0.27439   4.53618   2.70814 
 H                     1.34204   0.31636  -1.97925 
 C                    -3.46416   0.63581  -1.66281 
 O                    -3.51202  -0.55523  -1.97687 
 C                    -4.68303   1.31386  -1.04602 
 H                    -4.38771   1.80226  -0.10168 
 H                    -5.03962   2.1283   -1.69814 
 C                    -1.10046   0.75413  -2.28001 
 H                    -1.39403  -0.09112  -2.91334 
 H                    -0.59546   1.49574  -2.91333 
 N                    -2.33783   1.38067  -1.80623 
 C                    -2.23637   2.77091  -1.42664 
 H                    -1.72399   2.89833  -0.45838 
 H                    -1.64486   3.30323  -2.18558 
 H                    -3.21736   3.25061  -1.37524 
 C                    -5.81269   0.33628  -0.77444 
 H                    -6.21843  -0.03825  -1.72627 
 H                    -5.40522  -0.55132  -0.26639 
 C                    -6.91702   0.94737   0.07158 
 H                    -6.4868    1.31407   1.02248 
 H                    -7.33043   1.84043  -0.42949 
 C                    -8.04316  -0.02803   0.37812 
 H                    -8.46471  -0.40406  -0.56798 
 H                    -7.62317  -0.91107   0.88896 
 C                    -9.14192   0.5885    1.22725 
 H                    -8.74467   0.94729   2.18743 
 H                    -9.59376   1.45205   0.71942 
 H                    -9.9452   -0.12619   1.44554 
 H                    -3.30861   1.08477   2.87627 
 H                     0.02981  -4.77045  -3.27893 
 

 GradGradGradGradGradGradGradGradGradGradGradGradGradGradGradGradGradGrad
 Berny optimization.
 Initialization pass.
 Trust Radius=3.00D-01 FncErr=1.00D-07 GrdErr=1.00D-07 EigMax=2.50D+02 EigMin=1.00D-04
 Number of steps in this run=      2 maximum allowed number of steps=      2.
 GradGradGradGradGradGradGradGradGradGradGradGradGradGradGradGradGradGrad

 Stoichiometry    C36H61B3IrN3O7
 Framework group  C1[X(C36H61B3IrN3O7)]
 Deg. of freedom   327
 Full point group                 C1      NOp   1
 Largest Abelian subgroup         C1      NOp   1
 Largest concise Abelian subgroup C1      NOp   1
                         Standard orientation:                         
 ---------------------------------------------------------------------
 Center     Atomic      Atomic             Coordinates (Angstroms)
 Number     Number       Type             X           Y           Z
 ---------------------------------------------------------------------
      1          6           0       -1.593110   -2.461370   -0.690400
      2          6           0        0.108340   -2.915850   -2.193390
      3          6           0       -0.455880   -4.136070   -2.541770
      4          6           0       -1.645180   -4.512670   -1.930980
      5          6           0       -2.219650   -3.669980   -0.991150
      6          6           0       -2.123000   -1.510350    0.306750
      7          6           0       -1.856370    0.531480    1.397680
      8          6           0       -2.999470    0.330110    2.157400
      9          6           0       -3.721690   -0.844130    1.976380
     10          6           0       -3.271190   -1.773800    1.053800
     11          1           0        1.048940   -2.568070   -2.617610
     12          1           0       -2.125890   -5.455790   -2.183530
     13          1           0       -3.155780   -3.948920   -0.516000
     14          1           0       -1.229240    1.416430    1.507590
     15          1           0       -4.629080   -1.035700    2.547510
     16          1           0       -3.825250   -2.694940    0.899020
     17          7           0       -0.451020   -2.102280   -1.297710
     18          7           0       -1.434510   -0.361420    0.487970
     19         77           0        0.297570   -0.003600   -0.778640
     20          8           0        3.368410    0.244290   -0.156770
     21          8           0        1.370940   -2.116310    1.333140
     22          8           0        0.381330    2.603700    0.815260
     23          5           0        1.178030   -0.775400    1.038380
     24          5           0        2.332910   -0.475350   -0.743950
     25          5           0        0.835750    1.885220   -0.296360
     26          8           0        1.744610    2.655560   -1.010050
     27          8           0        2.847510   -1.526350   -1.503380
     28          6           0        4.267640   -1.570280   -1.295510
     29          6           0        4.574020   -0.111970   -0.849250
     30          6           0        1.330530    3.653660    1.055590
     31          6           0        1.877540    3.930500   -0.375260
     32          6           0        1.314580   -2.261890    2.764060
     33          6           0        1.700070   -0.836990    3.257770
     34          8           0        1.237270   -0.006330    2.182360
     35          6           0        5.748350    0.045330    0.093860
     36          1           0        5.619430   -0.539840    1.011420
     37          1           0        6.684650   -0.266930   -0.390550
     38          1           0        5.849380    1.101330    0.378890
     39          6           0        4.712030    0.854170   -2.019830
     40          1           0        4.661120    1.880760   -1.635210
     41          1           0        5.663990    0.721590   -2.551700
     42          1           0        3.887810    0.737250   -2.735330
     43          6           0        4.538560   -2.600620   -0.208770
     44          1           0        4.105980   -3.560600   -0.517510
     45          1           0        5.614020   -2.742400   -0.035880
     46          1           0        4.055290   -2.313440    0.733000
     47          6           0        4.944240   -1.991560   -2.584890
     48          1           0        4.638320   -1.362540   -3.427760
     49          1           0        6.038120   -1.938390   -2.485920
     50          1           0        4.678000   -3.029580   -2.822890
     51          6           0       -0.118930   -2.645450    3.109510
     52          1           0       -0.238580   -2.865710    4.178840
     53          1           0       -0.822630   -1.846610    2.838280
     54          1           0       -0.390900   -3.543170    2.538110
     55          6           0        2.256290   -3.368760    3.192240
     56          1           0        2.278710   -3.458260    4.288050
     57          1           0        1.913120   -4.326460    2.780470
     58          1           0        3.278470   -3.197900    2.837380
     59          6           0        1.019610   -0.401320    4.540590
     60          1           0        1.277190   -1.074240    5.371310
     61          1           0        1.351530    0.609840    4.809230
     62          1           0       -0.071060   -0.378050    4.432440
     63          6           0        3.203310   -0.622970    3.369920
     64          1           0        3.396740    0.445930    3.526990
     65          1           0        3.637920   -1.182270    4.209400
     66          1           0        3.713270   -0.913240    2.442310
     67          6           0        1.032789    4.923640   -1.161430
     68          1           0        1.346159    4.895890   -2.212720
     69          1           0       -0.031481    4.658090   -1.120460
     70          1           0        1.151439    5.951370   -0.791580
     71          6           0        3.336210    4.344410   -0.422460
     72          1           0        3.637980    4.513120   -1.464830
     73          1           0        3.504579    5.276900    0.135970
     74          1           0        3.981530    3.561250   -0.005900
     75          6           0        2.387500    3.088860    1.998230
     76          1           0        2.912100    2.237680    1.541380
     77          1           0        3.119380    3.853210    2.294430
     78          1           0        1.882740    2.715920    2.898950
     79          6           0        0.622799    4.824000    1.707640
     80          1           0        1.304109    5.679550    1.821430
     81          1           0       -0.248171    5.147450    1.125560
     82          1           0        0.274390    4.536180    2.708140
     83          1           0        1.342040    0.316360   -1.979250
     84          6           0       -3.464160    0.635810   -1.662810
     85          8           0       -3.512020   -0.555230   -1.976870
     86          6           0       -4.683030    1.313860   -1.046020
     87          1           0       -4.387710    1.802260   -0.101680
     88          1           0       -5.039620    2.128300   -1.698140
     89          6           0       -1.100460    0.754130   -2.280010
     90          1           0       -1.394030   -0.091120   -2.913340
     91          1           0       -0.595460    1.495740   -2.913330
     92          7           0       -2.337830    1.380670   -1.806230
     93          6           0       -2.236370    2.770910   -1.426640
     94          1           0       -1.723990    2.898330   -0.458380
     95          1           0       -1.644860    3.303230   -2.185580
     96          1           0       -3.217360    3.250610   -1.375240
     97          6           0       -5.812690    0.336280   -0.774440
     98          1           0       -6.218430   -0.038250   -1.726270
     99          1           0       -5.405220   -0.551320   -0.266390
    100          6           0       -6.917020    0.947370    0.071580
    101          1           0       -6.486800    1.314070    1.022480
    102          1           0       -7.330430    1.840430   -0.429490
    103          6           0       -8.043160   -0.028030    0.378120
    104          1           0       -8.464710   -0.404060   -0.567980
    105          1           0       -7.623170   -0.911070    0.888960
    106          6           0       -9.141920    0.588500    1.227250
    107          1           0       -8.744670    0.947290    2.187430
    108          1           0       -9.593760    1.452050    0.719420
    109          1           0       -9.945200   -0.126190    1.445540
    110          1           0       -3.308610    1.084770    2.876270
    111          1           0        0.029810   -4.770450   -3.278930
 ---------------------------------------------------------------------
 Rotational constants (GHZ):           0.0829122           0.0484143           0.0430074
 General basis read from cards:  (5D, 7F)
 ======================================================================================================
                                       Pseudopotential Parameters
 ======================================================================================================
  Center     Atomic      Valence      Angular      Power
  Number     Number     Electrons     Momentum     of R      Exponent        Coefficient   SO-Coeffient
 ======================================================================================================
    1          6
                                   No pseudopotential on this center.
    2          6
                                   No pseudopotential on this center.
    3          6
                                   No pseudopotential on this center.
    4          6
                                   No pseudopotential on this center.
    5          6
                                   No pseudopotential on this center.
    6          6
                                   No pseudopotential on this center.
    7          6
                                   No pseudopotential on this center.
    8          6
                                   No pseudopotential on this center.
    9          6
                                   No pseudopotential on this center.
   10          6
                                   No pseudopotential on this center.
   11          1
                                   No pseudopotential on this center.
   12          1
                                   No pseudopotential on this center.
   13          1
                                   No pseudopotential on this center.
   14          1
                                   No pseudopotential on this center.
   15          1
                                   No pseudopotential on this center.
   16          1
                                   No pseudopotential on this center.
   17          7
                                   No pseudopotential on this center.
   18          7
                                   No pseudopotential on this center.
   19         77           17
                                      G and up 
                                                     1      823.5880147       -0.15780140    0.00000000
                                                     2      364.6613336    -1517.52704460    0.00000000
                                                     2       55.7082801     -316.53065290    0.00000000
                                                     2       12.0464544      -91.88809410    0.00000000
                                                     2        3.5120610       -9.22417730    0.00000000
                                      S - G
                                                     0      188.0490770        3.15780140    0.00000000
                                                     1      340.4194712       26.83225770    0.00000000
                                                     2      128.2373673      800.42500070    0.00000000
                                                     2       33.8644961      369.40506830    0.00000000
                                                     2        4.7560005      242.41718990    0.00000000
                                                     2        3.9649974     -118.21732820    0.00000000
                                      P - G
                                                     0      289.7291139        2.15780140    0.00000000
                                                     1       87.4633789       61.96786100    0.00000000
                                                     2       30.4363766      269.05819860    0.00000000
                                                     2        4.0553412      231.16547930    0.00000000
                                                     2        3.5525341     -133.69526670    0.00000000
                                      D - G
                                                     0      136.4017106        3.15780140    0.00000000
                                                     1       95.0776925       45.93498030    0.00000000
                                                     2       49.2258410      359.03446680    0.00000000
                                                     2       15.0874145      176.47401190    0.00000000
                                                     2        4.0405764       54.51552860    0.00000000
                                      F - G
                                                     0      127.3507908        3.95461970    0.00000000
                                                     1       66.2364374       52.97736550    0.00000000
                                                     2       34.4299229      274.86433830    0.00000000
                                                     2       10.1995721      137.20473380    0.00000000
                                                     2        2.5409702       14.86333050    0.00000000
   20          8
                                   No pseudopotential on this center.
   21          8
                                   No pseudopotential on this center.
   22          8
                                   No pseudopotential on this center.
   23          5
                                   No pseudopotential on this center.
   24          5
                                   No pseudopotential on this center.
   25          5
                                   No pseudopotential on this center.
   26          8
                                   No pseudopotential on this center.
   27          8
                                   No pseudopotential on this center.
   28          6
                                   No pseudopotential on this center.
   29          6
                                   No pseudopotential on this center.
   30          6
                                   No pseudopotential on this center.
   31          6
                                   No pseudopotential on this center.
   32          6
                                   No pseudopotential on this center.
   33          6
                                   No pseudopotential on this center.
   34          8
                                   No pseudopotential on this center.
   35          6
                                   No pseudopotential on this center.
   36          1
                                   No pseudopotential on this center.
   37          1
                                   No pseudopotential on this center.
   38          1
                                   No pseudopotential on this center.
   39          6
                                   No pseudopotential on this center.
   40          1
                                   No pseudopotential on this center.
   41          1
                                   No pseudopotential on this center.
   42          1
                                   No pseudopotential on this center.
   43          6
                                   No pseudopotential on this center.
   44          1
                                   No pseudopotential on this center.
   45          1
                                   No pseudopotential on this center.
   46          1
                                   No pseudopotential on this center.
   47          6
                                   No pseudopotential on this center.
   48          1
                                   No pseudopotential on this center.
   49          1
                                   No pseudopotential on this center.
   50          1
                                   No pseudopotential on this center.
   51          6
                                   No pseudopotential on this center.
   52          1
                                   No pseudopotential on this center.
   53          1
                                   No pseudopotential on this center.
   54          1
                                   No pseudopotential on this center.
   55          6
                                   No pseudopotential on this center.
   56          1
                                   No pseudopotential on this center.
   57          1
                                   No pseudopotential on this center.
   58          1
                                   No pseudopotential on this center.
   59          6
                                   No pseudopotential on this center.
   60          1
                                   No pseudopotential on this center.
   61          1
                                   No pseudopotential on this center.
   62          1
                                   No pseudopotential on this center.
   63          6
                                   No pseudopotential on this center.
   64          1
                                   No pseudopotential on this center.
   65          1
                                   No pseudopotential on this center.
   66          1
                                   No pseudopotential on this center.
   67          6
                                   No pseudopotential on this center.
   68          1
                                   No pseudopotential on this center.
   69          1
                                   No pseudopotential on this center.
   70          1
                                   No pseudopotential on this center.
   71          6
                                   No pseudopotential on this center.
   72          1
                                   No pseudopotential on this center.
   73          1
                                   No pseudopotential on this center.
   74          1
                                   No pseudopotential on this center.
   75          6
                                   No pseudopotential on this center.
   76          1
                                   No pseudopotential on this center.
   77          1
                                   No pseudopotential on this center.
   78          1
                                   No pseudopotential on this center.
   79          6
                                   No pseudopotential on this center.
   80          1
                                   No pseudopotential on this center.
   81          1
                                   No pseudopotential on this center.
   82          1
                                   No pseudopotential on this center.
   83          1
                                   No pseudopotential on this center.
   84          6
                                   No pseudopotential on this center.
   85          8
                                   No pseudopotential on this center.
   86          6
                                   No pseudopotential on this center.
   87          1
                                   No pseudopotential on this center.
   88          1
                                   No pseudopotential on this center.
   89          6
                                   No pseudopotential on this center.
   90          1
                                   No pseudopotential on this center.
   91          1
                                   No pseudopotential on this center.
   92          7
                                   No pseudopotential on this center.
   93          6
                                   No pseudopotential on this center.
   94          1
                                   No pseudopotential on this center.
   95          1
                                   No pseudopotential on this center.
   96          1
                                   No pseudopotential on this center.
   97          6
                                   No pseudopotential on this center.
   98          1
                                   No pseudopotential on this center.
   99          1
                                   No pseudopotential on this center.
  100          6
                                   No pseudopotential on this center.
  101          1
                                   No pseudopotential on this center.
  102          1
                                   No pseudopotential on this center.
  103          6
                                   No pseudopotential on this center.
  104          1
                                   No pseudopotential on this center.
  105          1
                                   No pseudopotential on this center.
  106          6
                                   No pseudopotential on this center.
  107          1
                                   No pseudopotential on this center.
  108          1
                                   No pseudopotential on this center.
  109          1
                                   No pseudopotential on this center.
  110          1
                                   No pseudopotential on this center.
  111          1
                                   No pseudopotential on this center.
 ======================================================================================================
 There are   881 symmetry adapted cartesian basis functions of A   symmetry.
 There are   830 symmetry adapted basis functions of A   symmetry.
   830 basis functions,  1659 primitive gaussians,   881 cartesian basis functions
   193 alpha electrons      193 beta electrons
       nuclear repulsion energy      8209.8518967157 Hartrees.
 NAtoms=  111 NActive=  111 NUniq=  111 SFac= 1.00D+00 NAtFMM=   60 NAOKFM=T Big=T
 Integral buffers will be    131072 words long.
 Raffenetti 2 integral format.
 Two-electron integral symmetry is turned on.
 One-electron integrals computed using PRISM.
   1 Symmetry operations used in ECPInt.
 ECPInt:  NShTT=   53301 NPrTT=  320676 LenC2=   40416 LenP2D=  124802.
 LDataN:  DoStor=T MaxTD1= 6 Len=  172
 NBasis=   830 RedAO= T EigKep=  5.32D-04  NBF=   830
 NBsUse=   830 1.00D-06 EigRej= -1.00D+00 NBFU=   830
 Defaulting to unpruned grid for atomic number  77.
 ExpMin= 2.90D-02 ExpMax= 5.48D+03 ExpMxC= 8.25D+02 IAcc=3 IRadAn=         5 AccDes= 0.00D+00
 Harris functional with IExCor= 1009 and IRadAn=       5 diagonalized for initial guess.
 HarFok:  IExCor= 1009 AccDes= 0.00D+00 IRadAn=         5 IDoV= 1 UseB2=F ITyADJ=14
 ICtDFT=  3500011 ScaDFX=  1.000000  1.000000  1.000000  1.000000
 Defaulting to unpruned grid for atomic number  77.
 FoFCou: FMM=F IPFlag=           0 FMFlag=      100000 FMFlg1=        2001
         NFxFlg=           0 DoJE=T BraDBF=F KetDBF=T FulRan=T
         wScrn=  0.000000 ICntrl=       500 IOpCl=  0 I1Cent=   200000004 NGrid=           0
         NMat0=    1 NMatS0=      1 NMatT0=    0 NMatD0=    1 NMtDS0=    0 NMtDT0=    0
 Petite list used in FoFCou.
 Requested convergence on RMS density matrix=1.00D-08 within 128 cycles.
 Requested convergence on MAX density matrix=1.00D-06.
 Requested convergence on             energy=1.00D-06.
 No special actions if energy rises.
 Defaulting to unpruned grid for atomic number  77.
 Defaulting to unpruned grid for atomic number  77.
 Defaulting to unpruned grid for atomic number  77.
 Defaulting to unpruned grid for atomic number  77.
 Defaulting to unpruned grid for atomic number  77.
 Defaulting to unpruned grid for atomic number  77.
 Defaulting to unpruned grid for atomic number  77.
 Defaulting to unpruned grid for atomic number  77.
 Defaulting to unpruned grid for atomic number  77.
 Defaulting to unpruned grid for atomic number  77.
 Defaulting to unpruned grid for atomic number  77.
 Defaulting to unpruned grid for atomic number  77.
 Defaulting to unpruned grid for atomic number  77.
 Defaulting to unpruned grid for atomic number  77.
 Defaulting to unpruned grid for atomic number  77.
 Defaulting to unpruned grid for atomic number  77.
 SCF Done:  E(RM06) =  -2277.52527252     A.U. after   14 cycles
            NFock= 14  Conv=0.91D-08     -V/T= 2.0391
 DoSCS=F DFT=T ScalE2(SS,OS)=  1.000000  1.000000
 Range of M.O.s used for correlation:     1   830
 NBasis=   830 NAE=   193 NBE=   193 NFC=     0 NFV=     0
 NROrb=    830 NOA=   193 NOB=   193 NVA=   637 NVB=   637

 **** Warning!!: The largest alpha MO coefficient is  0.13619536D+02

   1 Symmetry operations used in ECPInt.
 ECPInt:  NShTT=   53301 NPrTT=  320676 LenC2=   40416 LenP2D=  124802.
 LDataN:  DoStor=T MaxTD1= 7 Len=  274
 Number of processors reduced to   8 by ecpmxn.
 Symmetrizing basis deriv contribution to polar:
 IMax=3 JMax=2 DiffMx= 0.00D+00
 G2DrvN: will do   112 centers at a time, making    1 passes.
 Calling FoFCou, ICntrl=  3107 FMM=T I1Cent=   0 AccDes= 0.00D+00.
 Defaulting to unpruned grid for atomic number  77.
 Defaulting to unpruned grid for atomic number  77.
 Defaulting to unpruned grid for atomic number  77.
 Defaulting to unpruned grid for atomic number  77.
 Defaulting to unpruned grid for atomic number  77.
 Defaulting to unpruned grid for atomic number  77.
 Defaulting to unpruned grid for atomic number  77.
 Defaulting to unpruned grid for atomic number  77.
 Defaulting to unpruned grid for atomic number  77.
 Defaulting to unpruned grid for atomic number  77.
 Defaulting to unpruned grid for atomic number  77.
 Defaulting to unpruned grid for atomic number  77.
 Defaulting to unpruned grid for atomic number  77.
 Defaulting to unpruned grid for atomic number  77.
 Defaulting to unpruned grid for atomic number  77.
 Defaulting to unpruned grid for atomic number  77.
 End of G2Drv F.D. properties file   721 does not exist.
 End of G2Drv F.D. properties file   722 does not exist.
 End of G2Drv F.D. properties file   788 does not exist.
          IDoAtm=11111111111111111111111111111111111111111111111111
          IDoAtm=11111111111111111111111111111111111111111111111111
          IDoAtm=11111111111
          Differentiating once with respect to electric field.
                with respect to dipole field.
          Differentiating once with respect to nuclear coordinates.
 Defaulting to unpruned grid for atomic number  77.
 CalDSu exits because no D1Ps are significant.
 Defaulting to unpruned grid for atomic number  77.
 Defaulting to unpruned grid for atomic number  77.
 Defaulting to unpruned grid for atomic number  77.
 Defaulting to unpruned grid for atomic number  77.
 Defaulting to unpruned grid for atomic number  77.
 Defaulting to unpruned grid for atomic number  77.
 Defaulting to unpruned grid for atomic number  77.
 Defaulting to unpruned grid for atomic number  77.
 Defaulting to unpruned grid for atomic number  77.
 Defaulting to unpruned grid for atomic number  77.
 Defaulting to unpruned grid for atomic number  77.
 Defaulting to unpruned grid for atomic number  77.
 Defaulting to unpruned grid for atomic number  77.
 Defaulting to unpruned grid for atomic number  77.
 Defaulting to unpruned grid for atomic number  77.
 Defaulting to unpruned grid for atomic number  77.
          There are   336 degrees of freedom in the 1st order CPHF.  IDoFFX=6 NUNeed=     3.
    333 vectors produced by pass  0 Test12= 1.23D-13 1.00D-09 XBig12= 4.33D+02 6.91D+00.
 AX will form    72 AO Fock derivatives at one time.
    333 vectors produced by pass  1 Test12= 1.23D-13 1.00D-09 XBig12= 7.91D+01 1.11D+00.
    333 vectors produced by pass  2 Test12= 1.23D-13 1.00D-09 XBig12= 7.36D-01 6.89D-02.
    333 vectors produced by pass  3 Test12= 1.23D-13 1.00D-09 XBig12= 4.23D-03 5.54D-03.
    333 vectors produced by pass  4 Test12= 1.23D-13 1.00D-09 XBig12= 1.22D-05 3.41D-04.
    287 vectors produced by pass  5 Test12= 1.23D-13 1.00D-09 XBig12= 2.10D-08 1.07D-05.
     74 vectors produced by pass  6 Test12= 1.23D-13 1.00D-09 XBig12= 2.89D-11 3.02D-07.
      3 vectors produced by pass  7 Test12= 1.23D-13 1.00D-09 XBig12= 3.82D-14 1.37D-08.
 InvSVY:  IOpt=1 It=  1 EMax= 7.11D-15
 Solved reduced A of dimension  2029 with   336 vectors.
 Isotropic polarizability for W=    0.000000      491.21 Bohr**3.
 End of Minotr F.D. properties file   721 does not exist.
 End of Minotr F.D. properties file   722 does not exist.
 End of Minotr F.D. properties file   788 does not exist.
 Hyperfine terms turned off by default for NAtoms > 100.

 **********************************************************************

            Population analysis using the SCF Density.

 **********************************************************************

 Orbital symmetries:
       Occupied  (A) (A) (A) (A) (A) (A) (A) (A) (A) (A) (A) (A)
                 (A) (A) (A) (A) (A) (A) (A) (A) (A) (A) (A) (A)
                 (A) (A) (A) (A) (A) (A) (A) (A) (A) (A) (A) (A)
                 (A) (A) (A) (A) (A) (A) (A) (A) (A) (A) (A) (A)
                 (A) (A) (A) (A) (A) (A) (A) (A) (A) (A) (A) (A)
                 (A) (A) (A) (A) (A) (A) (A) (A) (A) (A) (A) (A)
                 (A) (A) (A) (A) (A) (A) (A) (A) (A) (A) (A) (A)
                 (A) (A) (A) (A) (A) (A) (A) (A) (A) (A) (A) (A)
                 (A) (A) (A) (A) (A) (A) (A) (A) (A) (A) (A) (A)
                 (A) (A) (A) (A) (A) (A) (A) (A) (A) (A) (A) (A)
                 (A) (A) (A) (A) (A) (A) (A) (A) (A) (A) (A) (A)
                 (A) (A) (A) (A) (A) (A) (A) (A) (A) (A) (A) (A)
                 (A) (A) (A) (A) (A) (A) (A) (A) (A) (A) (A) (A)
                 (A) (A) (A) (A) (A) (A) (A) (A) (A) (A) (A) (A)
                 (A) (A) (A) (A) (A) (A) (A) (A) (A) (A) (A) (A)
                 (A) (A) (A) (A) (A) (A) (A) (A) (A) (A) (A) (A)
                 (A)
       Virtual   (A) (A) (A) (A) (A) (A) (A) (A) (A) (A) (A) (A)
                 (A) (A) (A) (A) (A) (A) (A) (A) (A) (A) (A) (A)
                 (A) (A) (A) (A) (A) (A) (A) (A) (A) (A) (A) (A)
                 (A) (A) (A) (A) (A) (A) (A) (A) (A) (A) (A) (A)
                 (A) (A) (A) (A) (A) (A) (A) (A) (A) (A) (A) (A)
                 (A) (A) (A) (A) (A) (A) (A) (A) (A) (A) (A) (A)
                 (A) (A) (A) (A) (A) (A) (A) (A) (A) (A) (A) (A)
                 (A) (A) (A) (A) (A) (A) (A) (A) (A) (A) (A) (A)
                 (A) (A) (A) (A) (A) (A) (A) (A) (A) (A) (A) (A)
                 (A) (A) (A) (A) (A) (A) (A) (A) (A) (A) (A) (A)
                 (A) (A) (A) (A) (A) (A) (A) (A) (A) (A) (A) (A)
                 (A) (A) (A) (A) (A) (A) (A) (A) (A) (A) (A) (A)
                 (A) (A) (A) (A) (A) (A) (A) (A) (A) (A) (A) (A)
                 (A) (A) (A) (A) (A) (A) (A) (A) (A) (A) (A) (A)
                 (A) (A) (A) (A) (A) (A) (A) (A) (A) (A) (A) (A)
                 (A) (A) (A) (A) (A) (A) (A) (A) (A) (A) (A) (A)
                 (A) (A) (A) (A) (A) (A) (A) (A) (A) (A) (A) (A)
                 (A) (A) (A) (A) (A) (A) (A) (A) (A) (A) (A) (A)
                 (A) (A) (A) (A) (A) (A) (A) (A) (A) (A) (A) (A)
                 (A) (A) (A) (A) (A) (A) (A) (A) (A) (A) (A) (A)
                 (A) (A) (A) (A) (A) (A) (A) (A) (A) (A) (A) (A)
                 (A) (A) (A) (A) (A) (A) (A) (A) (A) (A) (A) (A)
                 (A) (A) (A) (A) (A) (A) (A) (A) (A) (A) (A) (A)
                 (A) (A) (A) (A) (A) (A) (A) (A) (A) (A) (A) (A)
                 (A) (A) (A) (A) (A) (A) (A) (A) (A) (A) (A) (A)
                 (A) (A) (A) (A) (A) (A) (A) (A) (A) (A) (A) (A)
                 (A) (A) (A) (A) (A) (A) (A) (A) (A) (A) (A) (A)
                 (A) (A) (A) (A) (A) (A) (A) (A) (A) (A) (A) (A)
                 (A) (A) (A) (A) (A) (A) (A) (A) (A) (A) (A) (A)
                 (A) (A) (A) (A) (A) (A) (A) (A) (A) (A) (A) (A)
                 (A) (A) (A) (A) (A) (A) (A) (A) (A) (A) (A) (A)
                 (A) (A) (A) (A) (A) (A) (A) (A) (A) (A) (A) (A)
                 (A) (A) (A) (A) (A) (A) (A) (A) (A) (A) (A) (A)
                 (A) (A) (A) (A) (A) (A) (A) (A) (A) (A) (A) (A)
                 (A) (A) (A) (A) (A) (A) (A) (A) (A) (A) (A) (A)
                 (A) (A) (A) (A) (A) (A) (A) (A) (A) (A) (A) (A)
                 (A) (A) (A) (A) (A) (A) (A) (A) (A) (A) (A) (A)
                 (A) (A) (A) (A) (A) (A) (A) (A) (A) (A) (A) (A)
                 (A) (A) (A) (A) (A) (A) (A) (A) (A) (A) (A) (A)
                 (A) (A) (A) (A) (A) (A) (A) (A) (A) (A) (A) (A)
                 (A) (A) (A) (A) (A) (A) (A) (A) (A) (A) (A) (A)
                 (A) (A) (A) (A) (A) (A) (A) (A) (A) (A) (A) (A)
                 (A) (A) (A) (A) (A) (A) (A) (A) (A) (A) (A) (A)
                 (A) (A) (A) (A) (A) (A) (A) (A) (A) (A) (A) (A)
                 (A) (A) (A) (A) (A) (A) (A) (A) (A) (A) (A) (A)
                 (A) (A) (A) (A) (A) (A) (A) (A) (A) (A) (A) (A)
                 (A) (A) (A) (A) (A) (A) (A) (A) (A) (A) (A) (A)
                 (A) (A) (A) (A) (A) (A) (A) (A) (A) (A) (A) (A)
                 (A) (A) (A) (A) (A) (A) (A) (A) (A) (A) (A) (A)
                 (A) (A) (A) (A) (A) (A) (A) (A) (A) (A) (A) (A)
                 (A) (A) (A) (A) (A) (A) (A) (A) (A) (A) (A) (A)
                 (A) (A) (A) (A) (A) (A) (A) (A) (A) (A) (A) (A)
                 (A) (A) (A) (A) (A) (A) (A) (A) (A) (A) (A) (A)
                 (A)
 The electronic state is 1-A.
 Alpha  occ. eigenvalues --  -19.21137 -19.20644 -19.20371 -19.20206 -19.19621
 Alpha  occ. eigenvalues --  -19.19126 -19.16050 -14.45530 -14.43183 -14.39991
 Alpha  occ. eigenvalues --  -10.31914 -10.31778 -10.30977 -10.29973 -10.29899
 Alpha  occ. eigenvalues --  -10.29788 -10.29349 -10.29263 -10.29083 -10.28767
 Alpha  occ. eigenvalues --  -10.28754 -10.28569 -10.27823 -10.27737 -10.27455
 Alpha  occ. eigenvalues --  -10.27146 -10.26686 -10.25495 -10.23743 -10.23651
 Alpha  occ. eigenvalues --  -10.23458 -10.23303 -10.23270 -10.23229 -10.23080
 Alpha  occ. eigenvalues --  -10.22833 -10.22764 -10.22759 -10.22591 -10.22544
 Alpha  occ. eigenvalues --  -10.22214 -10.22166 -10.21964 -10.21877 -10.21612
 Alpha  occ. eigenvalues --  -10.21174  -6.81748  -6.80940  -6.78574  -3.63882
 Alpha  occ. eigenvalues --   -2.06834  -2.05630  -2.04574  -1.06875  -1.06292
 Alpha  occ. eigenvalues --   -1.05386  -1.01869  -0.99895  -0.99506  -0.99346
 Alpha  occ. eigenvalues --   -0.98448  -0.96825  -0.91375  -0.83923  -0.82644
 Alpha  occ. eigenvalues --   -0.82109  -0.81066  -0.81009  -0.80351  -0.79752
 Alpha  occ. eigenvalues --   -0.76699  -0.76494  -0.75430  -0.74830  -0.74197
 Alpha  occ. eigenvalues --   -0.70959  -0.70234  -0.70069  -0.69845  -0.69295
 Alpha  occ. eigenvalues --   -0.68292  -0.68150  -0.67546  -0.67310  -0.66987
 Alpha  occ. eigenvalues --   -0.64854  -0.63835  -0.62931  -0.62340  -0.61470
 Alpha  occ. eigenvalues --   -0.60836  -0.59883  -0.57725  -0.57086  -0.55293
 Alpha  occ. eigenvalues --   -0.54960  -0.54382  -0.53926  -0.53326  -0.52828
 Alpha  occ. eigenvalues --   -0.52665  -0.52588  -0.50982  -0.50195  -0.49059
 Alpha  occ. eigenvalues --   -0.48643  -0.48491  -0.48292  -0.47251  -0.47099
 Alpha  occ. eigenvalues --   -0.47037  -0.46655  -0.46378  -0.46040  -0.45722
 Alpha  occ. eigenvalues --   -0.45578  -0.45443  -0.45155  -0.44868  -0.44627
 Alpha  occ. eigenvalues --   -0.44215  -0.43917  -0.43738  -0.43541  -0.43213
 Alpha  occ. eigenvalues --   -0.43049  -0.42785  -0.42460  -0.41803  -0.41736
 Alpha  occ. eigenvalues --   -0.40619  -0.40529  -0.40291  -0.40103  -0.40024
 Alpha  occ. eigenvalues --   -0.39972  -0.39740  -0.39691  -0.39627  -0.39115
 Alpha  occ. eigenvalues --   -0.39097  -0.38973  -0.38835  -0.38622  -0.38537
 Alpha  occ. eigenvalues --   -0.38236  -0.38050  -0.37929  -0.37623  -0.37468
 Alpha  occ. eigenvalues --   -0.37133  -0.37003  -0.36807  -0.36321  -0.36037
 Alpha  occ. eigenvalues --   -0.35953  -0.35894  -0.35822  -0.35391  -0.35174
 Alpha  occ. eigenvalues --   -0.35011  -0.34888  -0.34422  -0.34366  -0.34072
 Alpha  occ. eigenvalues --   -0.33690  -0.33478  -0.33189  -0.32950  -0.32484
 Alpha  occ. eigenvalues --   -0.32401  -0.32283  -0.32065  -0.31678  -0.31344
 Alpha  occ. eigenvalues --   -0.31146  -0.31062  -0.30621  -0.30530  -0.30117
 Alpha  occ. eigenvalues --   -0.29477  -0.28796  -0.27463  -0.26998  -0.26174
 Alpha  occ. eigenvalues --   -0.25846  -0.25687  -0.25242  -0.24470  -0.23509
 Alpha  occ. eigenvalues --   -0.22870  -0.21574  -0.18102
 Alpha virt. eigenvalues --   -0.06301  -0.03352  -0.02013   0.02316   0.02784
 Alpha virt. eigenvalues --    0.04032   0.05487   0.06200   0.06867   0.07120
 Alpha virt. eigenvalues --    0.07361   0.08526   0.09263   0.09997   0.10032
 Alpha virt. eigenvalues --    0.10417   0.10829   0.11521   0.11801   0.11920
 Alpha virt. eigenvalues --    0.12131   0.12464   0.12839   0.12913   0.13107
 Alpha virt. eigenvalues --    0.13525   0.13794   0.13939   0.14108   0.14581
 Alpha virt. eigenvalues --    0.14718   0.14992   0.15216   0.15272   0.15332
 Alpha virt. eigenvalues --    0.15596   0.15715   0.15970   0.16047   0.16326
 Alpha virt. eigenvalues --    0.16549   0.16909   0.17045   0.17263   0.17488
 Alpha virt. eigenvalues --    0.17695   0.17878   0.18007   0.18142   0.18305
 Alpha virt. eigenvalues --    0.18535   0.18622   0.19008   0.19162   0.19277
 Alpha virt. eigenvalues --    0.19376   0.19615   0.19756   0.20101   0.20182
 Alpha virt. eigenvalues --    0.20273   0.20338   0.20472   0.20896   0.21089
 Alpha virt. eigenvalues --    0.21310   0.21734   0.21857   0.22014   0.22129
 Alpha virt. eigenvalues --    0.22229   0.22450   0.22729   0.23201   0.23244
 Alpha virt. eigenvalues --    0.23406   0.23883   0.23946   0.24150   0.24327
 Alpha virt. eigenvalues --    0.24408   0.24802   0.24884   0.25232   0.25324
 Alpha virt. eigenvalues --    0.25827   0.25916   0.26110   0.26806   0.27117
 Alpha virt. eigenvalues --    0.27156   0.27284   0.27846   0.27950   0.28317
 Alpha virt. eigenvalues --    0.28505   0.28663   0.29176   0.29401   0.29719
 Alpha virt. eigenvalues --    0.30178   0.30224   0.30486   0.30933   0.31515
 Alpha virt. eigenvalues --    0.31859   0.32033   0.32976   0.33901   0.34040
 Alpha virt. eigenvalues --    0.34395   0.35885   0.36324   0.36716   0.36951
 Alpha virt. eigenvalues --    0.37870   0.38666   0.39659   0.39953   0.40520
 Alpha virt. eigenvalues --    0.41924   0.42522   0.42914   0.45250   0.46088
 Alpha virt. eigenvalues --    0.46369   0.47869   0.48580   0.48960   0.49203
 Alpha virt. eigenvalues --    0.49671   0.50285   0.50409   0.50877   0.51457
 Alpha virt. eigenvalues --    0.52092   0.52604   0.52779   0.52936   0.53088
 Alpha virt. eigenvalues --    0.53598   0.53926   0.54506   0.54694   0.54938
 Alpha virt. eigenvalues --    0.55541   0.55603   0.56025   0.56111   0.56376
 Alpha virt. eigenvalues --    0.56651   0.56927   0.57473   0.57932   0.58005
 Alpha virt. eigenvalues --    0.58182   0.58701   0.58781   0.59190   0.59453
 Alpha virt. eigenvalues --    0.59707   0.59788   0.60146   0.60228   0.60541
 Alpha virt. eigenvalues --    0.60695   0.60899   0.60962   0.61378   0.61568
 Alpha virt. eigenvalues --    0.62175   0.62659   0.62932   0.63256   0.63727
 Alpha virt. eigenvalues --    0.63991   0.64514   0.64682   0.64903   0.65209
 Alpha virt. eigenvalues --    0.65340   0.65653   0.66245   0.66648   0.66886
 Alpha virt. eigenvalues --    0.67238   0.67526   0.68088   0.68695   0.69071
 Alpha virt. eigenvalues --    0.69163   0.69350   0.69625   0.70113   0.70502
 Alpha virt. eigenvalues --    0.70907   0.71111   0.71522   0.71938   0.72163
 Alpha virt. eigenvalues --    0.72509   0.72699   0.73146   0.73224   0.73675
 Alpha virt. eigenvalues --    0.74084   0.74264   0.74439   0.74931   0.75429
 Alpha virt. eigenvalues --    0.75971   0.76096   0.76650   0.77438   0.77587
 Alpha virt. eigenvalues --    0.77911   0.78289   0.78774   0.78904   0.79201
 Alpha virt. eigenvalues --    0.79539   0.79930   0.80110   0.80946   0.81196
 Alpha virt. eigenvalues --    0.81309   0.81615   0.82093   0.82636   0.82711
 Alpha virt. eigenvalues --    0.82943   0.83163   0.83338   0.83831   0.84057
 Alpha virt. eigenvalues --    0.84124   0.84448   0.84758   0.85100   0.85459
 Alpha virt. eigenvalues --    0.85603   0.85970   0.86060   0.86262   0.86666
 Alpha virt. eigenvalues --    0.86791   0.87026   0.87135   0.87518   0.87751
 Alpha virt. eigenvalues --    0.87902   0.88271   0.88486   0.88752   0.88840
 Alpha virt. eigenvalues --    0.89358   0.89379   0.89484   0.89754   0.90058
 Alpha virt. eigenvalues --    0.90330   0.90617   0.90865   0.91011   0.91107
 Alpha virt. eigenvalues --    0.91560   0.91736   0.91914   0.92125   0.92270
 Alpha virt. eigenvalues --    0.92539   0.92780   0.93095   0.93233   0.93576
 Alpha virt. eigenvalues --    0.94248   0.94661   0.94748   0.94944   0.95230
 Alpha virt. eigenvalues --    0.95402   0.95667   0.96160   0.96424   0.96867
 Alpha virt. eigenvalues --    0.97248   0.97539   0.97949   0.98344   0.98465
 Alpha virt. eigenvalues --    0.98887   0.99262   0.99834   1.00163   1.00958
 Alpha virt. eigenvalues --    1.01120   1.01159   1.01524   1.02067   1.02271
 Alpha virt. eigenvalues --    1.03443   1.03619   1.04038   1.04318   1.05177
 Alpha virt. eigenvalues --    1.05655   1.06553   1.07046   1.08211   1.08576
 Alpha virt. eigenvalues --    1.09522   1.09646   1.09780   1.10564   1.10783
 Alpha virt. eigenvalues --    1.11458   1.11829   1.12429   1.12941   1.13605
 Alpha virt. eigenvalues --    1.14485   1.14875   1.15568   1.16054   1.16296
 Alpha virt. eigenvalues --    1.17059   1.18185   1.18602   1.19232   1.19559
 Alpha virt. eigenvalues --    1.19902   1.20529   1.21818   1.22271   1.22932
 Alpha virt. eigenvalues --    1.23850   1.24075   1.24560   1.25149   1.25734
 Alpha virt. eigenvalues --    1.26898   1.27439   1.28185   1.28281   1.28591
 Alpha virt. eigenvalues --    1.29383   1.29820   1.30780   1.31760   1.32670
 Alpha virt. eigenvalues --    1.33488   1.33879   1.34708   1.35318   1.35742
 Alpha virt. eigenvalues --    1.36614   1.37159   1.37991   1.38456   1.38711
 Alpha virt. eigenvalues --    1.39546   1.40516   1.40949   1.41828   1.42154
 Alpha virt. eigenvalues --    1.42381   1.43068   1.43488   1.44165   1.44591
 Alpha virt. eigenvalues --    1.44632   1.45322   1.45654   1.45959   1.46360
 Alpha virt. eigenvalues --    1.46766   1.47305   1.47650   1.48301   1.48719
 Alpha virt. eigenvalues --    1.49097   1.49411   1.49989   1.50205   1.50747
 Alpha virt. eigenvalues --    1.52395   1.53105   1.53823   1.54703   1.55917
 Alpha virt. eigenvalues --    1.57122   1.57334   1.59160   1.59636   1.60346
 Alpha virt. eigenvalues --    1.61091   1.62688   1.62899   1.64670   1.64761
 Alpha virt. eigenvalues --    1.65038   1.65387   1.66257   1.66479   1.67482
 Alpha virt. eigenvalues --    1.68302   1.68745   1.69541   1.70120   1.71139
 Alpha virt. eigenvalues --    1.71293   1.71599   1.74031   1.74212   1.74753
 Alpha virt. eigenvalues --    1.75141   1.76457   1.76727   1.77567   1.78049
 Alpha virt. eigenvalues --    1.78087   1.78939   1.79497   1.79758   1.80111
 Alpha virt. eigenvalues --    1.80633   1.81413   1.82167   1.82588   1.83207
 Alpha virt. eigenvalues --    1.83736   1.83986   1.84574   1.84673   1.85138
 Alpha virt. eigenvalues --    1.85548   1.86159   1.86297   1.87157   1.87487
 Alpha virt. eigenvalues --    1.88182   1.88567   1.89343   1.89516   1.89857
 Alpha virt. eigenvalues --    1.90002   1.90728   1.90984   1.91527   1.91739
 Alpha virt. eigenvalues --    1.91858   1.92041   1.92334   1.92387   1.92608
 Alpha virt. eigenvalues --    1.92833   1.93023   1.93449   1.93543   1.93703
 Alpha virt. eigenvalues --    1.94050   1.94596   1.94697   1.95726   1.96688
 Alpha virt. eigenvalues --    1.97243   1.97527   1.97805   1.98323   1.99065
 Alpha virt. eigenvalues --    1.99237   1.99932   2.00436   2.00744   2.01216
 Alpha virt. eigenvalues --    2.01572   2.02565   2.02810   2.03474   2.04064
 Alpha virt. eigenvalues --    2.04160   2.04814   2.05599   2.06518   2.06867
 Alpha virt. eigenvalues --    2.07104   2.07200   2.07531   2.08199   2.08356
 Alpha virt. eigenvalues --    2.08899   2.09256   2.10048   2.10373   2.10574
 Alpha virt. eigenvalues --    2.11242   2.11423   2.12317   2.12939   2.13207
 Alpha virt. eigenvalues --    2.13904   2.14189   2.14356   2.14988   2.15387
 Alpha virt. eigenvalues --    2.15467   2.15887   2.16228   2.16599   2.16979
 Alpha virt. eigenvalues --    2.17760   2.17996   2.18462   2.18748   2.19218
 Alpha virt. eigenvalues --    2.19490   2.19801   2.20085   2.20382   2.20840
 Alpha virt. eigenvalues --    2.21374   2.21496   2.21985   2.22390   2.22640
 Alpha virt. eigenvalues --    2.23009   2.23193   2.23818   2.24043   2.24723
 Alpha virt. eigenvalues --    2.24843   2.25308   2.25911   2.26293   2.26554
 Alpha virt. eigenvalues --    2.27159   2.27643   2.28290   2.28541   2.29270
 Alpha virt. eigenvalues --    2.29512   2.30080   2.31291   2.31662   2.32274
 Alpha virt. eigenvalues --    2.32355   2.33025   2.33643   2.33702   2.34977
 Alpha virt. eigenvalues --    2.35539   2.35646   2.36233   2.36889   2.37556
 Alpha virt. eigenvalues --    2.38892   2.38982   2.39465   2.39504   2.39826
 Alpha virt. eigenvalues --    2.40657   2.41753   2.43050   2.45011   2.46749
 Alpha virt. eigenvalues --    2.47055   2.48384   2.48713   2.49059   2.49353
 Alpha virt. eigenvalues --    2.49861   2.50206   2.52045   2.52840   2.54178
 Alpha virt. eigenvalues --    2.54980   2.55423   2.56229   2.57644   2.59237
 Alpha virt. eigenvalues --    2.60208   2.60418   2.60997   2.61312   2.61529
 Alpha virt. eigenvalues --    2.62439   2.63766   2.64572   2.65521   2.65899
 Alpha virt. eigenvalues --    2.66239   2.68309   2.69247   2.69402   2.70231
 Alpha virt. eigenvalues --    2.71286   2.73766   2.77152   2.77585   2.78332
 Alpha virt. eigenvalues --    2.78590   2.78701   2.78989   2.79892   2.80248
 Alpha virt. eigenvalues --    2.80878   2.81334   2.81532   2.81837   2.83420
 Alpha virt. eigenvalues --    2.83989   2.84273   2.85149   2.86149   2.88000
 Alpha virt. eigenvalues --    2.88698   2.91659   2.93391   2.94339   2.95703
 Alpha virt. eigenvalues --    2.97097   2.97404   2.99830   3.00799   3.01842
 Alpha virt. eigenvalues --    3.04721   3.05235   3.06824   3.09199   3.10613
 Alpha virt. eigenvalues --    3.13398   3.14430   3.23699   3.26124   3.31738
 Alpha virt. eigenvalues --    3.45462  14.87442
          Condensed to atoms (all electrons):
 Mulliken charges:
               1
     1  C    0.341498
     2  C    0.053897
     3  C   -0.172425
     4  C   -0.138696
     5  C   -0.172639
     6  C    0.328873
     7  C    0.035886
     8  C   -0.172896
     9  C   -0.144294
    10  C   -0.168106
    11  H    0.219510
    12  H    0.177453
    13  H    0.170155
    14  H    0.243137
    15  H    0.179788
    16  H    0.173175
    17  N   -0.466340
    18  N   -0.542067
    19  Ir  -0.120470
    20  O   -0.520231
    21  O   -0.508935
    22  O   -0.544726
    23  B    0.511047
    24  B    0.430664
    25  B    0.485001
    26  O   -0.507800
    27  O   -0.518314
    28  C    0.298588
    29  C    0.288445
    30  C    0.290427
    31  C    0.302786
    32  C    0.291710
    33  C    0.290938
    34  O   -0.488724
    35  C   -0.509836
    36  H    0.166382
    37  H    0.152280
    38  H    0.167304
    39  C   -0.503483
    40  H    0.171369
    41  H    0.146034
    42  H    0.186875
    43  C   -0.499510
    44  H    0.172244
    45  H    0.146511
    46  H    0.164618
    47  C   -0.514581
    48  H    0.175256
    49  H    0.150583
    50  H    0.165994
    51  C   -0.496920
    52  H    0.153028
    53  H    0.152899
    54  H    0.167128
    55  C   -0.510186
    56  H    0.151087
    57  H    0.172606
    58  H    0.171028
    59  C   -0.506761
    60  H    0.150501
    61  H    0.171060
    62  H    0.161209
    63  C   -0.496906
    64  H    0.171328
    65  H    0.148694
    66  H    0.165073
    67  C   -0.504162
    68  H    0.173630
    69  H    0.155900
    70  H    0.147390
    71  C   -0.500513
    72  H    0.165524
    73  H    0.145817
    74  H    0.165645
    75  C   -0.496466
    76  H    0.190277
    77  H    0.138847
    78  H    0.156141
    79  C   -0.511224
    80  H    0.150722
    81  H    0.161613
    82  H    0.164518
    83  H    0.192337
    84  C    0.585515
    85  O   -0.540561
    86  C   -0.413101
    87  H    0.148395
    88  H    0.170953
    89  C   -0.347668
    90  H    0.189534
    91  H    0.154522
    92  N   -0.366214
    93  C   -0.364047
    94  H    0.176026
    95  H    0.173948
    96  H    0.166369
    97  C   -0.256111
    98  H    0.161225
    99  H    0.135504
   100  C   -0.273698
   101  H    0.122348
   102  H    0.139728
   103  C   -0.278106
   104  H    0.152069
   105  H    0.135116
   106  C   -0.497277
   107  H    0.155044
   108  H    0.161044
   109  H    0.163673
   110  H    0.182419
   111  H    0.178132
 Sum of Mulliken charges =  -0.00000
 Mulliken charges with hydrogens summed into heavy atoms:
               1
     1  C    0.341498
     2  C    0.273407
     3  C    0.005707
     4  C    0.038757
     5  C   -0.002484
     6  C    0.328873
     7  C    0.279023
     8  C    0.009524
     9  C    0.035494
    10  C    0.005069
    17  N   -0.466340
    18  N   -0.542067
    19  Ir   0.071867
    20  O   -0.520231
    21  O   -0.508935
    22  O   -0.544726
    23  B    0.511047
    24  B    0.430664
    25  B    0.485001
    26  O   -0.507800
    27  O   -0.518314
    28  C    0.298588
    29  C    0.288445
    30  C    0.290427
    31  C    0.302786
    32  C    0.291710
    33  C    0.290938
    34  O   -0.488724
    35  C   -0.023870
    39  C    0.000796
    43  C   -0.016136
    47  C   -0.022749
    51  C   -0.023866
    55  C   -0.015465
    59  C   -0.023990
    63  C   -0.011811
    67  C   -0.027243
    71  C   -0.023527
    75  C   -0.011202
    79  C   -0.034369
    84  C    0.585515
    85  O   -0.540561
    86  C   -0.093754
    89  C   -0.003612
    92  N   -0.366214
    93  C    0.152296
    97  C    0.040617
   100  C   -0.011623
   103  C    0.009080
   106  C   -0.017516
 APT charges:
               1
     1  C    0.190327
     2  C    0.070482
     3  C   -0.066561
     4  C    0.126100
     5  C   -0.160621
     6  C    0.285474
     7  C    0.042373
     8  C   -0.117383
     9  C    0.140578
    10  C   -0.190880
    11  H    0.091779
    12  H    0.025883
    13  H    0.041207
    14  H    0.156236
    15  H    0.032565
    16  H    0.049403
    17  N   -0.242079
    18  N   -0.143638
    19  Ir  -0.680119
    20  O   -1.022354
    21  O   -0.881457
    22  O   -1.008210
    23  B    1.089552
    24  B    1.362940
    25  B    1.245521
    26  O   -0.956680
    27  O   -1.017585
    28  C    0.536529
    29  C    0.511212
    30  C    0.509598
    31  C    0.472333
    32  C    0.434288
    33  C    0.459926
    34  O   -0.862402
    35  C   -0.000922
    36  H   -0.002134
    37  H   -0.019215
    38  H   -0.002284
    39  C   -0.041452
    40  H    0.008237
    41  H   -0.029267
    42  H    0.014917
    43  C   -0.032976
    44  H    0.001706
    45  H   -0.024774
    46  H    0.007940
    47  C   -0.015173
    48  H    0.004699
    49  H   -0.016183
    50  H   -0.003093
    51  C   -0.013924
    52  H   -0.017231
    53  H   -0.012499
    54  H   -0.001555
    55  C    0.004389
    56  H   -0.016841
    57  H    0.000015
    58  H   -0.001322
    59  C   -0.001940
    60  H   -0.013827
    61  H    0.001030
    62  H   -0.002060
    63  C   -0.018617
    64  H    0.007157
    65  H   -0.025785
    66  H    0.006681
    67  C   -0.024534
    68  H    0.002494
    69  H    0.001117
    70  H   -0.028265
    71  C    0.001047
    72  H   -0.003357
    73  H   -0.024191
    74  H   -0.001461
    75  C   -0.040922
    76  H    0.029649
    77  H   -0.032539
    78  H   -0.001463
    79  C   -0.007462
    80  H   -0.017508
    81  H   -0.003795
    82  H   -0.002298
    83  H   -0.022605
    84  C    0.906520
    85  O   -0.742670
    86  C   -0.009816
    87  H   -0.021048
    88  H   -0.028686
    89  C    0.334193
    90  H   -0.036762
    91  H   -0.071563
    92  N   -0.787750
    93  C    0.262410
    94  H    0.002304
    95  H   -0.008024
    96  H   -0.009408
    97  C    0.101577
    98  H   -0.030983
    99  H   -0.023049
   100  C    0.106311
   101  H   -0.055246
   102  H   -0.054433
   103  C    0.121307
   104  H   -0.047231
   105  H   -0.054924
   106  C    0.061152
   107  H   -0.019923
   108  H   -0.019957
   109  H   -0.039344
   110  H    0.043297
   111  H    0.029798
 Sum of APT charges =  -0.00000
 APT charges with hydrogens summed into heavy atoms:
               1
     1  C    0.190327
     2  C    0.162260
     3  C   -0.036763
     4  C    0.151984
     5  C   -0.119414
     6  C    0.285474
     7  C    0.198609
     8  C   -0.074086
     9  C    0.173143
    10  C   -0.141477
    17  N   -0.242079
    18  N   -0.143638
    19  Ir  -0.702724
    20  O   -1.022354
    21  O   -0.881457
    22  O   -1.008210
    23  B    1.089552
    24  B    1.362940
    25  B    1.245521
    26  O   -0.956680
    27  O   -1.017585
    28  C    0.536529
    29  C    0.511212
    30  C    0.509598
    31  C    0.472333
    32  C    0.434288
    33  C    0.459926
    34  O   -0.862402
    35  C   -0.024555
    39  C   -0.047564
    43  C   -0.048105
    47  C   -0.029749
    51  C   -0.045208
    55  C   -0.013759
    59  C   -0.016796
    63  C   -0.030564
    67  C   -0.049188
    71  C   -0.027962
    75  C   -0.045274
    79  C   -0.031063
    84  C    0.906520
    85  O   -0.742670
    86  C   -0.059549
    89  C    0.225869
    92  N   -0.787750
    93  C    0.247282
    97  C    0.047544
   100  C   -0.003368
   103  C    0.019152
   106  C   -0.018071
 Electronic spatial extent (au):  <R**2>=          29224.5654
 Charge=             -0.0000 electrons
 Dipole moment (field-independent basis, Debye):
    X=             -1.1908    Y=             -2.5868    Z=              3.7824  Tot=              4.7345
 Quadrupole moment (field-independent basis, Debye-Ang):
   XX=           -300.8015   YY=           -291.5048   ZZ=           -311.4057
   XY=              1.7656   XZ=            -11.3829   YZ=              3.2510
 Traceless Quadrupole moment (field-independent basis, Debye-Ang):
   XX=              0.4359   YY=              9.7326   ZZ=            -10.1684
   XY=              1.7656   XZ=            -11.3829   YZ=              3.2510
 Octapole moment (field-independent basis, Debye-Ang**2):
  XXX=             96.4935  YYY=            -50.1339  ZZZ=            -53.3140  XYY=            -16.4345
  XXY=            -14.3761  XXZ=             -4.1646  XZZ=             37.7657  YZZ=            -29.6920
  YYZ=            -69.7383  XYZ=             14.9065
 Hexadecapole moment (field-independent basis, Debye-Ang**3):
 XXXX=         -22212.6258 YYYY=          -9832.2542 ZZZZ=          -6585.2414 XXXY=            -23.6473
 XXXZ=           -157.8855 YYYX=            256.5942 YYYZ=            250.1730 ZZZX=            -48.6826
 ZZZY=             14.5616 XXYY=          -5334.2487 XXZZ=          -4851.6996 YYZZ=          -2698.9918
 XXYZ=            -73.9380 YYXZ=             64.6949 ZZXY=            -62.1087
 N-N= 8.209851896716D+03 E-N=-2.169733773106D+04  KE= 2.191867460981D+03
  Exact polarizability:     551.370      17.978     496.018     -29.470      29.264     426.252
 Approx polarizability:     725.839      36.557     739.792     -58.546      68.346     662.449
   1 Symmetry operations used in ECPInt.
 ECPInt:  NShTT=   53301 NPrTT=  320676 LenC2=   40416 LenP2D=  124802.
 LDataN:  DoStor=T MaxTD1= 8 Len=  415
 Calling FoFJK, ICntrl=    100127 FMM=F ISym2X=0 I1Cent= 0 IOpClX= 0 NMat=1 NMatS=1 NMatT=0.
 Defaulting to unpruned grid for atomic number  77.
 Defaulting to unpruned grid for atomic number  77.
 Defaulting to unpruned grid for atomic number  77.
 Defaulting to unpruned grid for atomic number  77.
 Defaulting to unpruned grid for atomic number  77.
 Defaulting to unpruned grid for atomic number  77.
 Defaulting to unpruned grid for atomic number  77.
 Defaulting to unpruned grid for atomic number  77.
 Defaulting to unpruned grid for atomic number  77.
 Defaulting to unpruned grid for atomic number  77.
 Defaulting to unpruned grid for atomic number  77.
 Defaulting to unpruned grid for atomic number  77.
 Defaulting to unpruned grid for atomic number  77.
 Defaulting to unpruned grid for atomic number  77.
 Defaulting to unpruned grid for atomic number  77.
 Defaulting to unpruned grid for atomic number  77.
 Full mass-weighted force constant matrix:
 Low frequencies ---  -10.7798   -1.9373    0.0005    0.0005    0.0008    4.6539
 Low frequencies ---   10.8865   20.8679   28.4918
 Diagonal vibrational polarizability:
      115.7521371      76.0014969      91.1177338
 Harmonic frequencies (cm**-1), IR intensities (KM/Mole), Raman scattering
 activities (A**4/AMU), depolarization ratios for plane and unpolarized
 incident light, reduced masses (AMU), force constants (mDyne/A),
 and normal coordinates:
                      1                      2                      3
                      A                      A                      A
 Frequencies --      9.6730                20.6363                28.2529
 Red. masses --      4.2754                 4.5845                 4.3368
 Frc consts  --      0.0002                 0.0012                 0.0020
 IR Inten    --      0.2291                 0.0982                 0.2854
  Atom AN      X      Y      Z        X      Y      Z        X      Y      Z
     1   6     0.03  -0.04  -0.02     0.03  -0.03   0.07     0.03  -0.02   0.03
     2   6     0.06  -0.03   0.01     0.02  -0.03   0.06     0.00   0.01  -0.01
     3   6     0.07  -0.04  -0.00     0.07  -0.08   0.14     0.06  -0.04   0.07
     4   6     0.05  -0.04  -0.03     0.11  -0.10   0.20     0.11  -0.08   0.13
     5   6     0.03  -0.04  -0.04     0.08  -0.08   0.16     0.10  -0.07   0.12
     6   6     0.01  -0.05  -0.03     0.00   0.00   0.03     0.01  -0.00   0.01
     7   6    -0.02  -0.04  -0.03    -0.03   0.04  -0.02    -0.04   0.04  -0.06
     8   6    -0.03  -0.05  -0.04    -0.05   0.05  -0.04    -0.03   0.03  -0.04
     9   6    -0.01  -0.06  -0.04    -0.04   0.05  -0.03     0.01   0.00   0.00
    10   6     0.01  -0.06  -0.04    -0.02   0.02   0.01     0.03  -0.01   0.03
    11   1     0.06  -0.03   0.03    -0.01  -0.01   0.03    -0.03   0.04  -0.06
    12   1     0.06  -0.04  -0.04     0.15  -0.14   0.27     0.16  -0.12   0.20
    13   1     0.02  -0.04  -0.06     0.12  -0.11   0.21     0.14  -0.11   0.17
    14   1    -0.03  -0.04  -0.03    -0.05   0.05  -0.04    -0.07   0.07  -0.10
    15   1    -0.01  -0.07  -0.04    -0.06   0.06  -0.05     0.02  -0.01   0.02
    16   1     0.02  -0.06  -0.04    -0.02   0.02   0.02     0.05  -0.03   0.06
    17   7     0.04  -0.04  -0.00    -0.00  -0.01   0.03    -0.01   0.02  -0.02
    18   7    -0.01  -0.04  -0.02    -0.01   0.01   0.01    -0.02   0.02  -0.03
    19  77     0.00  -0.02  -0.01    -0.01   0.00   0.01    -0.01   0.02  -0.03
    20   8    -0.01   0.04   0.01    -0.00   0.01  -0.03    -0.02  -0.02   0.04
    21   8     0.02  -0.00  -0.00     0.02  -0.02  -0.03    -0.05  -0.01  -0.03
    22   8    -0.04  -0.02  -0.01     0.00  -0.01   0.03    -0.01   0.02  -0.03
    23   5     0.00  -0.01  -0.00     0.01  -0.01  -0.01    -0.04  -0.00  -0.02
    24   5     0.01   0.01   0.00    -0.00   0.01  -0.02    -0.02   0.00  -0.00
    25   5    -0.03  -0.01  -0.01    -0.01   0.00   0.02     0.01   0.01  -0.02
    26   8    -0.05   0.01  -0.01    -0.02   0.01   0.01     0.05  -0.01   0.01
    27   8     0.03   0.02   0.02    -0.01   0.02  -0.03    -0.01   0.02  -0.02
    28   6     0.03   0.04   0.03    -0.00   0.03  -0.05    -0.02  -0.00   0.00
    29   6     0.00   0.05   0.02    -0.01   0.03  -0.04    -0.01  -0.02   0.05
    30   6    -0.05  -0.02   0.00     0.01  -0.02   0.03    -0.00   0.01  -0.01
    31   6    -0.05   0.00   0.00    -0.01   0.00   0.03     0.04  -0.01   0.01
    32   6     0.01  -0.01  -0.01     0.03  -0.04  -0.03    -0.05  -0.02  -0.03
    33   6    -0.02  -0.00   0.00     0.04  -0.05  -0.01    -0.06  -0.02  -0.02
    34   8    -0.02  -0.01  -0.00     0.04  -0.03   0.00    -0.05  -0.01  -0.02
    35   6    -0.01   0.07   0.03     0.00   0.02  -0.06    -0.03  -0.06   0.08
    36   1    -0.01   0.08   0.03     0.02   0.01  -0.06    -0.05  -0.09   0.06
    37   1     0.00   0.08   0.04    -0.00   0.03  -0.07    -0.02  -0.05   0.09
    38   1    -0.02   0.08   0.02     0.00   0.02  -0.05    -0.03  -0.07   0.12
    39   6    -0.00   0.04   0.01    -0.03   0.04  -0.04     0.03   0.01   0.08
    40   1    -0.02   0.04   0.00    -0.02   0.03  -0.02     0.05   0.00   0.11
    41   1     0.01   0.05   0.02    -0.03   0.04  -0.05     0.03   0.00   0.09
    42   1     0.01   0.02   0.00    -0.04   0.04  -0.02     0.03   0.06   0.07
    43   6     0.04   0.05   0.04     0.02   0.02  -0.07    -0.05  -0.04  -0.02
    44   1     0.05   0.04   0.04     0.02   0.02  -0.08    -0.05  -0.02  -0.06
    45   1     0.04   0.07   0.05     0.02   0.02  -0.08    -0.05  -0.05  -0.00
    46   1     0.03   0.05   0.03     0.03   0.00  -0.06    -0.06  -0.06  -0.02
    47   6     0.05   0.04   0.04    -0.02   0.05  -0.07     0.00   0.03   0.01
    48   1     0.05   0.03   0.03    -0.04   0.05  -0.06     0.03   0.05   0.02
    49   1     0.05   0.06   0.05    -0.02   0.05  -0.08     0.00   0.01   0.03
    50   1     0.07   0.03   0.04    -0.02   0.05  -0.08    -0.00   0.04  -0.03
    51   6     0.01  -0.03  -0.02     0.03  -0.04  -0.02    -0.05  -0.03  -0.04
    52   1    -0.00  -0.03  -0.02     0.04  -0.04  -0.02    -0.05  -0.03  -0.04
    53   1    -0.00  -0.04  -0.03     0.03  -0.04  -0.01    -0.06  -0.03  -0.04
    54   1     0.03  -0.03  -0.02     0.03  -0.04  -0.02    -0.05  -0.03  -0.04
    55   6     0.02   0.00   0.00     0.03  -0.05  -0.06    -0.05  -0.02  -0.04
    56   1     0.01   0.00   0.00     0.04  -0.07  -0.06    -0.06  -0.03  -0.04
    57   1     0.03  -0.00  -0.00     0.02  -0.04  -0.07    -0.05  -0.02  -0.06
    58   1     0.02   0.02   0.01     0.03  -0.05  -0.07    -0.05  -0.01  -0.04
    59   6    -0.04  -0.02  -0.00     0.06  -0.06   0.00    -0.07  -0.03  -0.02
    60   1    -0.04  -0.01  -0.00     0.07  -0.08  -0.01    -0.07  -0.04  -0.02
    61   1    -0.05  -0.01   0.00     0.07  -0.07   0.01    -0.07  -0.03  -0.01
    62   1    -0.04  -0.03  -0.02     0.06  -0.06   0.01    -0.07  -0.03  -0.03
    63   6    -0.02   0.02   0.02     0.05  -0.06  -0.03    -0.06  -0.02  -0.01
    64   1    -0.04   0.02   0.02     0.05  -0.06  -0.02    -0.06  -0.02   0.00
    65   1    -0.02   0.02   0.02     0.05  -0.07  -0.04    -0.06  -0.03  -0.01
    66   1    -0.01   0.03   0.02     0.03  -0.05  -0.04    -0.05  -0.02  -0.00
    67   6    -0.05   0.01   0.02    -0.02   0.01   0.05     0.08  -0.00  -0.03
    68   1    -0.06   0.02   0.01    -0.03   0.03   0.05     0.12  -0.01  -0.02
    69   1    -0.05   0.02   0.02    -0.02   0.01   0.06     0.08  -0.00  -0.07
    70   1    -0.05   0.01   0.02    -0.02   0.01   0.06     0.07  -0.00  -0.03
    71   6    -0.05   0.01   0.00    -0.01   0.01   0.01     0.05  -0.02   0.05
    72   1    -0.06   0.02   0.01    -0.03   0.02   0.01     0.09  -0.04   0.06
    73   1    -0.06   0.00   0.01    -0.01  -0.00   0.02     0.04  -0.02   0.04
    74   1    -0.05   0.01  -0.00    -0.00   0.00  -0.00     0.03  -0.02   0.08
    75   6    -0.04  -0.01  -0.00     0.02  -0.03   0.01    -0.04  -0.00   0.02
    76   1    -0.04  -0.01  -0.01     0.01  -0.03  -0.01    -0.03  -0.01   0.04
    77   1    -0.05  -0.01  -0.00     0.03  -0.04   0.01    -0.04  -0.01   0.05
    78   1    -0.04  -0.02  -0.00     0.03  -0.04   0.01    -0.07   0.00   0.01
    79   6    -0.06  -0.03   0.01     0.02  -0.02   0.06    -0.00   0.02  -0.04
    80   1    -0.07  -0.02   0.02     0.02  -0.03   0.06     0.01   0.01  -0.02
    81   1    -0.06  -0.03   0.01     0.01  -0.01   0.07     0.02   0.03  -0.06
    82   1    -0.06  -0.04   0.01     0.03  -0.04   0.06    -0.04   0.04  -0.04
    83   1     0.00  -0.01  -0.01    -0.02   0.01   0.00    -0.00   0.01  -0.02
    84   6    -0.01  -0.00  -0.00    -0.01   0.01   0.01     0.01   0.03  -0.01
    85   8    -0.04  -0.01   0.03    -0.00   0.00   0.03     0.03   0.03   0.00
    86   6     0.02   0.05  -0.01    -0.02   0.02  -0.02     0.01   0.02  -0.01
    87   1     0.05   0.08  -0.03    -0.04   0.03  -0.02     0.01   0.04  -0.02
    88   1     0.03   0.03  -0.03    -0.00   0.01  -0.04    -0.01   0.00  -0.02
    89   6    -0.01  -0.07  -0.03    -0.01   0.00   0.01     0.01   0.05  -0.03
    90   1    -0.03  -0.09   0.02    -0.01  -0.00   0.02     0.01   0.06  -0.04
    91   1    -0.01  -0.11  -0.07    -0.01  -0.00   0.01     0.01   0.06  -0.01
    92   7     0.01  -0.03  -0.04    -0.01   0.01   0.01     0.00   0.04  -0.03
    93   6     0.04  -0.03  -0.06    -0.01   0.01  -0.01    -0.01   0.05  -0.05
    94   1    -0.05  -0.02  -0.01     0.01   0.02  -0.02     0.05   0.07  -0.09
    95   1     0.14  -0.08  -0.01    -0.02   0.01  -0.02    -0.07   0.06  -0.10
    96   1     0.05   0.02  -0.17    -0.01   0.01   0.00    -0.02   0.03   0.01
    97   6    -0.00   0.08   0.05    -0.03   0.03  -0.04     0.03  -0.00   0.02
    98   1    -0.04   0.08   0.07    -0.00   0.01  -0.04     0.01  -0.01   0.03
    99   1    -0.01   0.08   0.05    -0.04   0.03  -0.01     0.06   0.01   0.01
   100   6     0.04   0.14   0.07    -0.05   0.05  -0.08     0.04  -0.03   0.05
   101   1     0.08   0.12   0.05    -0.07   0.05  -0.07     0.06   0.00   0.03
   102   1     0.07   0.15   0.07    -0.02   0.05  -0.10    -0.01  -0.05   0.05
   103   6     0.01   0.19   0.10    -0.07   0.06  -0.11     0.08  -0.06   0.10
   104   1    -0.03   0.20   0.11    -0.04   0.05  -0.12     0.05  -0.07   0.13
   105   1    -0.02   0.17   0.09    -0.10   0.07  -0.08     0.14  -0.05   0.08
   106   6     0.06   0.24   0.13    -0.10   0.09  -0.16     0.11  -0.10   0.16
   107   1     0.10   0.22   0.12    -0.13   0.10  -0.15     0.14  -0.09   0.14
   108   1     0.09   0.26   0.14    -0.07   0.09  -0.19     0.06  -0.11   0.18
   109   1     0.03   0.28   0.15    -0.11   0.10  -0.18     0.14  -0.12   0.20
   110   1    -0.04  -0.06  -0.04    -0.07   0.08  -0.08    -0.05   0.05  -0.07
   111   1     0.08  -0.04   0.01     0.08  -0.09   0.17     0.07  -0.04   0.08
                      4                      5                      6
                      A                      A                      A
 Frequencies --     37.4693                40.1049                44.9100
 Red. masses --      4.2143                 3.6038                 3.9753
 Frc consts  --      0.0035                 0.0034                 0.0047
 IR Inten    --      0.4712                 0.1514                 0.5071
  Atom AN      X      Y      Z        X      Y      Z        X      Y      Z
     1   6     0.05  -0.03  -0.02     0.02  -0.02  -0.01    -0.05   0.02   0.02
     2   6     0.03   0.04  -0.06     0.01   0.02  -0.04    -0.03  -0.04   0.06
     3   6     0.06   0.02  -0.06     0.01   0.02  -0.05    -0.07  -0.01   0.04
     4   6     0.09  -0.03  -0.03     0.03  -0.01  -0.04    -0.10   0.03  -0.00
     5   6     0.09  -0.05  -0.01     0.03  -0.03  -0.03    -0.09   0.05  -0.01
     6   6     0.02  -0.04  -0.02     0.01  -0.04  -0.00    -0.03   0.03   0.01
     7   6    -0.07  -0.01  -0.05    -0.01  -0.04   0.00    -0.02   0.04  -0.01
     8   6    -0.07  -0.04  -0.06    -0.01  -0.04  -0.00    -0.02   0.06  -0.01
     9   6    -0.02  -0.07  -0.04    -0.00  -0.05  -0.01    -0.02   0.06   0.01
    10   6     0.03  -0.07  -0.02     0.01  -0.04  -0.01    -0.03   0.05   0.02
    11   1     0.01   0.08  -0.08    -0.00   0.03  -0.04    -0.01  -0.07   0.08
    12   1     0.12  -0.04  -0.02     0.03  -0.01  -0.05    -0.14   0.06  -0.02
    13   1     0.11  -0.09   0.01     0.03  -0.04  -0.02    -0.12   0.09  -0.04
    14   1    -0.11   0.02  -0.07    -0.01  -0.03   0.00    -0.01   0.04  -0.02
    15   1    -0.01  -0.10  -0.05    -0.00  -0.05  -0.02    -0.02   0.07   0.02
    16   1     0.06  -0.10  -0.01     0.01  -0.05  -0.02    -0.03   0.05   0.04
    17   7     0.02   0.01  -0.04     0.01  -0.00  -0.02    -0.02  -0.02   0.04
    18   7    -0.02  -0.02  -0.03     0.01  -0.03   0.00    -0.02   0.03   0.00
    19  77    -0.00   0.01   0.01    -0.00  -0.01   0.00    -0.00  -0.01   0.01
    20   8     0.01  -0.03  -0.02    -0.01  -0.04   0.06    -0.01   0.01   0.03
    21   8    -0.08   0.02   0.04    -0.02   0.00   0.02    -0.04  -0.02   0.02
    22   8    -0.01  -0.01   0.05    -0.00   0.01  -0.02    -0.00  -0.02   0.01
[...]
 ,0.00004352,0.00087057,0.00005008,0.00094212,-0.01205490,-0.00802310,0
 .06287655,-0.13800799,-0.17052632,0.00146933,0.00016513,0.00108995,0.0
 0196422,-0.00208874,0.00428070,0.00000189,-0.00000126,0.00000023,-0.00
 000282,-0.00000458,-0.00000673,0.00003132,-0.00001359,0.00005395,-0.00
 148027,0.00127984,-0.00136136,-0.00164765,0.00119947,-0.00159596,0.000
 19920,-0.00000248,0.00009959,0.00007447,-0.00001901,0.00001930,0.00595
 893,-0.00144215,0.00285141,-0.00029685,-0.00024831,0.00018159,0.000077
 83,0.00001419,0.00002190,0.00004714,-0.00000428,0.00002488,-0.00002173
 ,0.00019109,0.00012753,-0.00019031,-0.00002416,-0.00013033,-0.00012564
 ,0.00006431,-0.00011168,-0.00004325,-0.00024593,-0.00008059,0.00001094
 ,0.00011475,0.00003377,0.00007537,-0.00003339,0.00000081,-0.00003675,-
 0.00000553,0.00000108,-0.00002381,0.00000015,0.00001778,0.00002547,-0.
 00004630,-0.00001704,0.00001059,-0.00004337,-0.00001999,-0.00001413,0.
 00001350,-0.00002679,0.00000664,-0.00001156,0.00004672,-0.00004245,0.0
 0006579,0.00004094,0.00000249,-0.00000190,-0.00000213,-0.00000119,0.00
 000011,-0.00000060,0.00000308,-0.00000020,-0.00000010,0.00000055,0.000
 00271,0.00000134,0.00000066,-0.00000200,-0.00000686,0.00000126,0.00000
 151,0.00000156,0.00000405,0.00000095,-0.00000122,-0.00000088,-0.000002
 45,0.00000467,0.00000884,0.00000149,0.00000121,-0.00000124,0.00000143,
 -0.00000004,0.00000439,-0.00000198,0.00000228,-0.00000230,-0.00000064,
 -0.00000173,0.00000321,-0.00000006,-0.00000003,-0.00000153,0.00000056,
 -0.00000028,0.00000363,-0.00000050,-0.00000064,-0.00000122,-0.00000021
 ,0.00000015,0.00003768,-0.00003488,0.00001873,-0.00000668,0.00001041,-
 0.00000357,-0.00001545,0.00000369,0.00000335,-0.00000352,0.00000817,-0
 .00000460,-0.00000018,0.00000196,0.00000487,-0.00000028,-0.00000056,0.
 00000143,-0.00000131,0.00000040,-0.00000117,0.00000199,0.00000029,-0.0
 0000167,-0.00002794,-0.00001475,-0.00001250,0.00000201,0.00000259,-0.0
 0000123,0.00000369,0.00000164,0.00000565,0.00001848,-0.00000330,-0.000
 00079,0.00000087,-0.00000296,-0.00001515,0.00000086,0.00000138,0.00000
 321,-0.00000218,0.00000050,0.00000076,0.00000390,-0.00000068,-0.000001
 67,0.00001023,0.00001035,0.00000063,-0.00000282,-0.00000126,0.00000212
 ,-0.00000463,-0.00000265,-0.00000349,-0.00000106,0.00000757,-0.0000017
 6,-0.00000130,0.00000813,0.00000359,-0.00000015,-0.00000227,0.00000105
 ,0.00000369,0.00000411,0.00000143,-0.00000539,0.00000108,-0.00000345,-
 0.00000133,0.00001450,0.00000160,-0.00000750,0.00000100,-0.00000098,0.
 00000135,-0.00000027,0.00000249,0.00000491,-0.00000478,0.00000185,0.00
 000841,-0.00001061,0.00000422,-0.00001629,0.00000176,0.00000601,-0.000
 00178,0.00001991,-0.00002348,0.00001489,0.00000315,0.00002334,0.000148
 74,0.00002915,-0.00008330,0.00038653,-0.00019913,-0.00002978,-0.000181
 39,0.00023078,0.00001095,-0.00010331,-0.00019596,-0.00020991,0.0000261
 8,0.00013677,-0.00000750,0.00000608,0.00003833,0.00007463,0.00007699,-
 0.00005481,0.00003592,-0.00000806,0.00001457,-0.00000313,-0.00001753,0
 .00001236,-0.00001338,-0.00022726,0.00011318,-0.00003754,-0.00003058,-
 0.00013655,-0.00004319,0.00007458,-0.00001131,0.00000956,-0.00000250,0
 .00001546,0.00003370,-0.00003690,0.00003729,-0.00004950,0.00000882,-0.
 00006388,0.00005045,0.00002015,0.00005312,0.00001714,0.00000893,0.0000
 3052,-0.00003963,-0.00006993,-0.00006909,-0.00020346,-0.00002294,0.000
 01590,0.00009662,0.00001132,0.00001744,0.00003471,-0.00000739,-0.00002
 917,0.00007074,0.00002917,0.00002496,0.00000379,0.00000182,0.00001185,
 -0.00001192,-0.00000074,0.00001757,-0.00000820,-0.00000859,-0.00000807
 ,0.00001072,-0.00000569,-0.00000206,-0.00000002,0.00001912,0.00000774,
 -0.00000178,-0.06949494,0.14992622,0.17391081,-0.00126881,-0.00102725,
 0.00002816,0.00921797,-0.00672306,-0.01024740,-0.10833688,0.06842790,0
 .09458659,-0.00640287,0.01758763,0.01722536,-0.00191395,-0.00387915,0.
 00418609,-0.00026690,0.00034980,-0.00068239,-0.00001138,0.00003532,0.0
 0001165,0.00001453,0.00004603,-0.00000375,0.00003972,-0.00000355,-0.00
 005736,-0.00006876,-0.00003878,0.00008492,-0.00056810,0.00125515,-0.00
 107068,-0.00007479,0.00098638,-0.00203267,-0.00029402,0.00081133,0.000
 93741,-0.00001034,-0.00000719,0.00000850,-0.00000671,0.00000241,-0.000
 00258,0.00007907,-0.00000448,-0.00000860,0.00206127,-0.00523412,0.0012
 4817,0.00000171,-0.00000546,0.00006907,0.00012486,0.00026559,-0.000166
 14,-0.00001576,0.00003805,0.00002342,0.00000184,0.00001489,0.00000706,
 0.00000866,-0.00000102,-0.00001130,-0.00001337,-0.00005666,-0.00000381
 ,0.00007971,-0.00006688,-0.00003127,-0.00002665,-0.00005009,0.00006421
 ,-0.00000977,-0.00002014,-0.00001424,-0.00008883,0.00007367,0.00005893
 ,0.00001058,-0.00002407,-0.00001095,-0.00000663,-0.00002156,-0.0000082
 4,-0.00000222,-0.00000789,-0.00000019,-0.00000079,-0.00000320,0.000003
 71,-0.00000601,-0.00000443,-0.00000253,0.00000240,-0.00000333,-0.00000
 617,0.00000612,0.00001351,0.00000001,-0.00000149,0.00000427,0.00000158
 ,-0.00000055,-0.00000158,-0.00000212,-0.00000198,-0.00000190,-0.000000
 92,0.00000094,0.00000476,0.00000152,-0.00000048,0.00000703,0.00000227,
 0.00000139,0.00000468,0.00000213,-0.00000168,-0.00000233,-0.00000009,0
 .00000229,-0.00000490,0.00000008,-0.00001076,-0.00002010,-0.00000279,-
 0.00000238,0.00001336,-0.00000800,0.00000421,0.00000522,-0.00000004,0.
 00000171,0.00000478,0.00000561,-0.00000028,-0.00003487,-0.00000690,-0.
 00000387,-0.00000370,0.00000157,0.00000791,0.00001235,0.00000890,-0.00
 001587,0.00002236,0.00000073,-0.00000002,-0.00000150,-0.00000441,0.000
 00163,0.00000070,0.00000307,-0.00000182,-0.00000335,-0.00000211,-0.000
 00298,0.00000619,-0.00000112,0.00000490,-0.00000033,-0.00000095,-0.000
 00154,0.00000143,0.00000304,0.00000087,0.00000282,-0.00000242,-0.00000
 080,-0.00000176,-0.00000224,-0.00000389,0.00000118,-0.00000078,0.00000
 085,-0.00000128,-0.00000023,0.00000122,0.00000191,0.00000040,0.0000005
 4,-0.00000070,-0.00000088,0.00000159,0.00000073,-0.00000259,0.00000034
 ,0.00000174,0.00000092,0.00000006,-0.00000094,0.00000081,-0.00000095,-
 0.00000105,0.00000033,-0.00000265,-0.00000089,-0.00000180,0.00000091,-
 0.00000003,-0.00000064,-0.00000048,-0.00000004,0.00000024,0.00000075,0
 .00000004,0.00000100,0.00000265,-0.00000305,-0.00000074,0.00000070,-0.
 00000093,-0.00000014,-0.00000211,0.00000049,0.00000083,-0.00000130,0.0
 0000035,-0.00000181,-0.00000021,-0.00000127,-0.00000005,0.00000053,-0.
 00000053,0.00000088,0.00000056,0.00000147,-0.00000055,0.00000023,-0.00
 000044,-0.00000171,-0.00000166,0.00000111,0.00000010,0.00000131,0.0000
 0025,-0.00000031,-0.00000096,-0.00000020,0.00000017,-0.00000002,-0.000
 00083,-0.00000129,0.00000682,-0.00000261,-0.00000222,-0.00001371,-0.00
 004068,0.00000958,-0.00001298,0.00005739,-0.00005050,0.00000341,0.0000
 0286,0.00000973,-0.00000004,-0.00000451,0.00000076,-0.00000140,0.00000
 446,-0.00000240,0.00000125,0.00002809,0.00003528,0.00001069,-0.0000110
 2,0.00001694,-0.00000431,0.00000635,-0.00000982,0.00000493,0.00002422,
 -0.00002419,0.00000382,-0.00001095,0.00000442,-0.00000449,0.00000119,0
 .00000093,0.00000206,0.00000256,-0.00000268,-0.00000130,0.00000037,0.0
 0000205,0.00000702,-0.00000783,0.00000974,-0.00000372,0.,-0.00000289,0
 .00000226,0.00000458,-0.00000430,0.00000166,0.00000068,-0.00000037,-0.
 00000043,-0.00000275,-0.00000291,-0.00000300,0.00000354,-0.00000064,0.
 00000391,-0.00000147,0.00000513,-0.00000168,-0.00000061,-0.00000235,-0
 .00000019,0.00000305,-0.00000195,-0.00000006,-0.00000035,-0.00000103,0
 .00000029,-0.00000064,-0.00000092,-0.00000071,0.00000207,-0.00000027,-
 0.00000159,-0.00000102,0.00000133,0.00001789,-0.00000251,0.00001802,0.
 10775136,-0.00152785,-0.00066825,0.00093559,0.01615942,-0.00914630,-0.
 01760458,0.06839282,-0.15081489,-0.12015353,-0.00494971,0.00904642,0.0
 0761186,-0.00357101,0.00174865,-0.00106712,0.00049581,-0.00025631,0.00
 042929,0.00000118,0.00002975,0.00003295,0.00002452,0.00000313,-0.00000
 237,0.00003897,-0.00000607,-0.00001347,-0.00004531,-0.00002637,-0.0000
 3267,0.00060364,-0.00004533,0.00141243,0.00142448,-0.00033011,0.001147
 30,-0.00035382,0.00037189,0.00038532,-0.00000588,-0.00000216,0.0000009
 8,0.00000842,-0.00000496,-0.00000029,-0.00000713,0.00002520,-0.0000297
 8,-0.00422453,-0.00373514,-0.00416306,-0.00006727,-0.00004620,-0.00004
 506,0.00036458,0.00066581,0.00002998,-0.00013250,0.00006120,0.00005108
 ,-0.00005048,0.00003345,-0.00006755,-0.00004936,-0.00017120,-0.0000734
 6,0.00008280,-0.00001981,0.00011581,0.00034281,-0.00019315,-0.00010558
 ,0.00001090,0.00013695,0.00002516,-0.00009694,-0.00019685,-0.00000788,
 -0.00011910,0.00018420,0.00014493,0.00002223,-0.00000718,-0.00002857,0
 .00004784,-0.00003516,-0.00004014,0.00005193,0.00003090,0.00001606,-0.
 00000052,0.00004662,0.00001836,-0.00000479,-0.00000460,0.00002791,0.00
 001910,-0.00001254,0.00002040,-0.00002506,0.00001469,-0.00005697,-0.00
 000806,0.00000856,0.00000610,0.00000215,-0.00000319,0.00000056,-0.0000
 0844,-0.00000083,-0.00000096,0.00000428,0.00000464,0.00000165,-0.00001
 034,0.00000516,0.00000612,0.00000597,0.00000670,0.00000283,-0.00001045
 ,-0.00000265,0.00000352,0.00000761,-0.00000739,-0.00000539,-0.00001370
 ,-0.00001423,0.00000239,-0.00000208,0.00001364,-0.00001087,0.00000114,
 0.00000578,-0.00000031,0.00000462,0.00000278,0.00001232,0.00000069,-0.
 00002261,-0.00000792,-0.00000931,-0.00002248,0.00000388,0.00000891,0.0
 0001318,0.00001527,-0.00002253,0.00003406,-0.00000736,0.00000029,-0.00
 000230,-0.00000263,0.00000008,0.00000155,-0.00000339,-0.00000316,0.000
 00123,0.00000276,0.00000107,-0.00000098,0.00000410,0.00000633,0.000001
 72,-0.00000430,-0.00000291,0.00000266,-0.00000150,0.00000138,0.0000015
 5,-0.00000031,-0.00000467,-0.00000153,-0.00000150,-0.00000423,0.000000
 57,-0.00000361,0.00000018,0.00000160,-0.00000302,0.00000068,-0.0000018
 4,0.00000041,-0.00000156,0.00000011,0.00000191,-0.00000039,-0.00000082
 ,-0.00000766,0.00000036,-0.00000119,0.00000165,-0.00000312,0.00000177,
 -0.00000184,0.00000081,-0.00000016,0.00000155,-0.00000269,-0.00001193,
 -0.00000889,-0.00000149,0.00000094,0.00000336,-0.00000228,0.00000361,-
 0.00000174,0.00000239,-0.00000902,0.00000126,0.00000502,-0.00001251,-0
 .00000320,-0.00000193,-0.00000175,0.00000533,-0.00000748,-0.00000443,-
 0.00000148,0.00000071,0.00000240,-0.00000325,-0.00000610,-0.00000755,-
 0.00000152,0.00000434,-0.00000055,0.00000085,-0.00000637,-0.00000386,-
 0.00000483,0.00000088,0.00000178,0.00000062,-0.00001275,-0.00000641,-0
 .00000309,-0.00000053,-0.00000836,-0.00000344,0.00000103,0.00000167,0.
 00000110,0.00000208,0.00000096,-0.00000123,-0.00002080,0.00000554,0.00
 001548,-0.00003902,-0.00001180,-0.00000377,0.00004556,0.00000405,0.000
 03763,-0.00000067,-0.00000146,-0.00000882,0.00000142,0.00000272,0.0000
 0151,0.00000267,-0.00000312,0.00000042,-0.00001184,0.00002027,0.000011
 23,0.00001274,-0.00000406,-0.00003704,0.00000166,-0.00003154,-0.000000
 12,0.00002779,-0.00001017,0.00001987,0.00000067,0.00000110,-0.00001822
 ,-0.00000266,0.00000131,0.00000669,-0.00000413,-0.00000017,0.00000013,
 0.00000553,-0.00000136,0.00000114,-0.00000361,-0.00000126,-0.00000430,
 0.00000372,0.00000034,0.00000253,-0.00000181,-0.00000323,0.00000003,-0
 .00000065,0.00000247,-0.00000110,0.00000032,0.00000170,0.00000279,0.00
 000118,-0.00000158,0.00000064,-0.00000152,-0.00000133,-0.00000226,0.00
 000142,0.00000066,0.00000152,0.00000007,-0.00000118,0.00000007,0.00000
 042,0.00000120,-0.00000007,-0.00000028,0.00000037,0.00000080,0.0000001
 5,-0.00000111,0.00000034,0.00000105,0.00000053,-0.00000078,-0.00000545
 ,0.00000866,-0.00001743,-0.07279053,0.15337607,-0.00047150,0.00045752,
 0.00027209,0.00388152,-0.00094732,-0.00264439,0.09435236,-0.12056471,-
 0.17646955,0.00342680,-0.00834231,-0.00518068,0.00439219,-0.00071734,0
 .00389663,-0.00060123,0.00048853,-0.00079169,-0.00000874,0.00000922,-0
 .00000991,-0.00001048,-0.00000448,-0.00002298,-0.00002536,0.00001850,-
 0.00000728,0.00007382,-0.00003656,0.00000252,-0.00117588,0.00109446,-0
 .00155009,-0.00173012,0.00151732,-0.00164395,0.00013210,-0.00048592,-0
 .00019191,0.00000580,-0.00000085,0.00000454,-0.00000121,0.00000263,-0.
 00001163,0.00000252,-0.00003473,0.00005934,0.00196234,-0.00362188,0.00
 458865,0.00005265,-0.00006631,0.00001717,-0.00001039,0.00019173,-0.000
 20536,-0.00011511,0.00003196,0.00001640,-0.00003859,0.00008933,-0.0000
 6309,-0.00003139,-0.00008779,-0.00004931,0.00004628,-0.00010468,0.0001
 2972,0.00025382,-0.00007372,-0.00002238,0.00004845,0.00009694,0.000095
 74,-0.00006152,-0.00011549,-0.00001375,-0.00024370,0.00012510,0.000037
 75,0.00009085,-0.00006404,0.00001624,0.00002252,-0.00003249,-0.0000341
 9,0.00003038,0.00002276,0.00001315,-0.00000012,0.00003256,0.00001405,0
 .00002204,-0.00001918,0.00002809,0.00001872,-0.00002766,0.00002119,-0.
 00002906,0.00004145,-0.00007720,-0.00000497,0.00000056,0.00000443,0.00
 000119,-0.00000199,-0.00000638,-0.00000691,-0.00000160,0.00000072,0.00
 000108,0.00000504,-0.00000098,-0.00000410,0.00001192,0.00000929,0.0000
 0341,0.00000578,-0.00000043,-0.00000651,-0.00000237,0.00000301,0.00000
 309,-0.00000304,-0.00000520,-0.00002462,-0.00004052,-0.00002156,-0.000
 00741,0.00001985,0.00000095,0.00000014,0.00001384,-0.00000300,0.000005
 21,0.00000330,0.00000531,-0.00001030,-0.00003134,-0.00001229,0.0000017
 6,0.00000729,-0.00000350,-0.00000069,0.00000995,0.00000722,-0.00000966
 ,0.00001614,0.00001454,-0.00000302,-0.00000345,-0.00000951,-0.00000068
 ,-0.00000026,-0.00000589,-0.00000551,0.00001185,0.00000608,0.00000908,
 -0.00000752,0.00000443,-0.00000617,-0.00001365,-0.00000409,-0.00000288
 ,0.00000687,0.00000220,0.00001023,0.00001042,-0.00000530,-0.00000859,-
 0.00000389,-0.00000305,-0.00000039,0.00000389,-0.00000394,-0.00000043,
 0.00000117,-0.00000556,0.00000094,0.00000042,0.00000177,-0.00000265,-0
 .00000131,0.00000337,-0.00000053,0.00000308,-0.00000536,0.00000025,0.0
 0000189,0.00000274,-0.00000433,0.00000096,-0.00000552,-0.00000044,-0.0
 0000423,0.00000344,-0.00000109,-0.00000622,-0.00000433,0.00000037,0.00
 000146,0.00000074,-0.00000201,0.00000234,0.00000009,0.00000064,-0.0000
 0564,-0.00000035,0.00000211,-0.00000790,-0.00000131,-0.00000049,-0.000
 00044,0.00000255,-0.00000434,-0.00000322,-0.00000114,-0.00000030,0.000
 00209,-0.00000189,-0.00000483,-0.00000431,-0.00000214,0.00000275,0.000
 00006,0.00000225,-0.00000434,-0.00000234,-0.00000296,0.00000190,0.0000
 0092,-0.00000079,-0.00000530,-0.00000337,-0.00000263,-0.00000117,-0.00
 000473,-0.00000132,-0.00000048,0.00000215,0.00000025,0.00000210,0.0000
 0071,-0.00000101,-0.00001147,-0.00000539,0.00000834,-0.00001812,0.0000
 1170,0.00000293,0.00000567,-0.00001358,-0.00000560,0.00000424,-0.00000
 259,-0.00000271,0.00000044,0.00000105,-0.00000124,0.00000096,-0.000001
 74,0.00000161,-0.00001686,0.00007559,0.00000853,0.00001947,-0.00000674
 ,0.00001322,-0.00000496,-0.00000743,-0.00000461,0.00001065,-0.00000270
 ,-0.00000268,0.00000332,0.00001190,0.00000287,-0.00000435,0.00000175,-
 0.00000064,-0.00000242,0.00000050,0.00000211,0.00000377,-0.00000092,-0
 .00000021,-0.00000268,0.00000406,-0.00000334,-0.00000025,0.00000039,0.
 00000045,-0.00000139,-0.00000170,0.00000270,-0.00000185,0.00000067,0.0
 0000099,0.00000010,0.00000072,-0.00000011,0.00000241,-0.00000221,0.000
 00053,-0.00000180,-0.00000056,-0.00000154,0.00000011,0.00000027,0.0000
 0022,-0.00000010,-0.00000143,0.00000136,0.,0.00000126,0.00000093,-0.00
 000072,-0.00000056,-0.00000048,0.00000041,-0.00000146,0.00000029,0.000
 00247,0.00000118,-0.00000099,0.00001710,-0.00001862,0.00001935,-0.1041
 7601,0.13109346,0.17977986\\0.00000442,-0.00001824,0.00000278,0.000003
 97,-0.00000497,-0.00000469,0.00000794,0.00000602,0.00000401,-0.0000041
 7,-0.00000909,-0.00000019,-0.00000492,0.00001311,0.00000796,-0.0000031
 3,0.00000933,-0.00000635,0.00000883,-0.00000908,-0.00000787,-0.0000111
 2,0.00000518,-0.00000229,0.00000194,0.00000209,-0.00001149,-0.00000061
 ,-0.00000688,0.00000563,-0.00000388,-0.00000222,0.00000358,-0.00000143
 ,0.00000108,0.00000363,0.00000259,0.00000062,-0.00000264,0.00000021,0.
 00000725,-0.00000046,0.00000426,0.00000073,0.00000998,0.00000209,0.000
 00218,0.00000385,-0.00001094,-0.00000790,0.00000185,-0.00001174,0.0000
 1983,-0.00000201,-0.00000031,-0.00000762,0.00002375,-0.00000151,-0.000
 00588,0.00000977,-0.00000254,-0.00000199,0.00000032,-0.00000359,0.0000
 0706,0.00000332,0.00000605,0.00000316,0.00001383,-0.00000253,0.0000030
 7,-0.00000250,0.00000446,0.00000033,-0.00000666,-0.00000293,0.00000205
 ,-0.00000079,0.00000563,-0.00000238,-0.00000245,-0.00000613,-0.0000017
 5,-0.00000322,0.00000327,-0.00000008,0.00000123,-0.00000616,-0.0000021
 6,-0.00001020,0.00000248,-0.00000472,-0.00000117,-0.00000455,0.0000049
 2,-0.00000053,-0.00000541,-0.00000582,0.00000542,0.00000113,-0.0000025
 6,-0.00001084,0.00000065,0.00000507,0.00000374,-0.00000264,-0.00000076
 ,0.00000372,-0.00000209,-0.00000338,0.00000068,0.00000306,-0.00000886,
 -0.00000086,-0.00000850,0.00000390,0.00000390,0.00000858,-0.00000535,-
 0.00000278,0.00000088,-0.00000223,0.00000263,0.00000346,-0.00000513,-0
 .00000065,0.00000609,0.00000133,0.00000968,-0.00000428,-0.00000464,0.0
 0000236,-0.00000659,-0.00000150,0.00000127,0.00000014,-0.00000177,-0.0
 0000262,-0.00000303,-0.00001133,-0.00000168,-0.00000109,-0.00000275,0.
 00000099,0.00000461,-0.00000335,0.00000387,-0.00000013,-0.00000098,0.0
 0000468,-0.00000138,-0.00000013,-0.00000308,-0.00000100,0.00000247,0.0
 0000414,-0.00000199,0.00000429,-0.00000159,-0.00000076,0.00000438,0.00
 000305,0.00000065,-0.00000807,-0.00000132,-0.00000181,0.00000266,0.000
 00648,-0.00000096,0.00000542,0.00000414,-0.00000412,-0.00000296,0.0000
 0418,0.00000467,0.00000176,0.00000914,-0.00000241,0.00000493,-0.000002
 29,-0.00000164,0.00000040,-0.00000189,-0.00000232,0.00000261,0.0000009
 6,0.00000175,0.00000538,0.00000351,-0.00000083,0.00000075,0.00000011,-
 0.00000269,0.00000183,-0.00000051,0.00000130,0.00000285,-0.00000333,0.
 00000207,-0.00000085,-0.00000329,0.00000193,-0.00000203,-0.00000042,-0
 .00000286,0.00000074,-0.00000431,0.00000163,0.00000067,-0.00000300,0.0
 0000199,-0.00000295,-0.00000498,0.00000050,-0.00000217,-0.00000041,0.0
 0000046,-0.00000112,-0.00000178,-0.00000173,-0.00000138,0.00000247,0.0
 0000413,-0.00000278,0.00000276,0.00000877,0.00000102,-0.00000063,0.000
 00084,0.00000089,-0.00000319,-0.00000077,0.,-0.00000578,0.00000245,0.0
 0000172,0.00000005,0.00000107,0.00000087,-0.00000345,0.00000239,0.0000
 0039,-0.00000290,0.00000111,0.00000147,-0.00000246,-0.00000057,-0.0000
 0589,-0.00000263,0.00000464,-0.00000033,-0.00000463,-0.00000456,0.0000
 0217,-0.00000138,0.00000240,0.00000112,0.00000939,0.00000219,0.0000037
 2,0.00000090,0.00000041,-0.00000408,-0.00000965,0.00002964,-0.00000246
 ,-0.00001288,-0.00000335,-0.00000287,-0.00000591,-0.00000691,-0.000003
 34,-0.00000039,-0.00000474,-0.00000159,0.00000770,0.00000294,0.0000076
 9,-0.00000696,0.00000197,0.00000354,0.00000676,-0.00000030,-0.00000688
 ,0.00000222,0.00000400,0.00000061,-0.00000432,0.00000695,-0.00000092,-
 0.00000757,-0.00000155,0.00000027,-0.00000142,-0.00000596,0.00000125,-
 0.00000130,-0.00000816,0.00000339,-0.00000445,0.00001234,-0.00000293,0
 .00000858,0.00000103,0.00000092,0.00000042,0.00000283,0.00000508,-0.00
 000141,-0.00000128,0.00000192,-0.00000302,-0.00001078,0.00000417,-0.00
 000620,-0.00000631,-0.00000129,-0.00000262,0.00000168,0.00000566,0.000
 00067,-0.00000014,0.00000363,-0.00000348,0.00000325,0.00000685,-0.0000
 0262,-0.00000106,0.00000672,0.00000025,-0.00000180,-0.00000216,0.00000
 206\\\@
 The archive entry for this job was punched.


 WHEN YOU REACH FOR THE STARS, YOU MAY NOT QUITE GET ONE,
 BUT YOU WON'T COME UP WITH A HANDFUL OF MUD, EITHER.

                                         -- LEO BURNETT (AD AGENCY HEAD)
 Job cpu time:       1 days 15 hours 19 minutes 30.2 seconds.
 Elapsed time:       0 days  2 hours 30 minutes 24.2 seconds.
 File lengths (MBytes):  RWF=   8594 Int=      0 D2E=      0 Chk=     49 Scr=      1
 Normal termination of Gaussian 16 at Sun Dec  8 00:16:18 2024.
