/mnt/lustre/scratch/nvme/SLURM/9663642/usccqdma.YTI1FGGJP7
OMP_STACKSIZE=0m
GAUSS_PDEF=16
GAUSS_MDEF=65536MB
GAUSS_RDEF=SCF=Direct
 Entering Gaussian System, Link 0=g16.exe
 Initial command:
 /opt/cesga/2020/software/Core/g16/c1/l1.exe "/mnt/lustre/scratch/nvme/SLURM/9663642/usccqdma.YTI1FGGJP7/Gau-2657303.inp" -scrdir="/mnt/lustre/scratch/nvme/SLURM/9663642/usccqdma.YTI1FGGJP7/"
 Default is to use a total of  16 processors:
                               16 via shared-memory
                                1 via Linda
 Entering Link 1 = /opt/cesga/2020/software/Core/g16/c1/l1.exe PID=   2657329.
  
 Copyright (c) 1988-2019, Gaussian, Inc.  All Rights Reserved.
  
 This is part of the Gaussian(R) 16 program.  It is based on
 the Gaussian(R) 09 system (copyright 2009, Gaussian, Inc.),
 the Gaussian(R) 03 system (copyright 2003, Gaussian, Inc.),
 the Gaussian(R) 98 system (copyright 1998, Gaussian, Inc.),
 the Gaussian(R) 94 system (copyright 1995, Gaussian, Inc.),
 the Gaussian 92(TM) system (copyright 1992, Gaussian, Inc.),
 the Gaussian 90(TM) system (copyright 1990, Gaussian, Inc.),
 the Gaussian 88(TM) system (copyright 1988, Gaussian, Inc.),
 the Gaussian 86(TM) system (copyright 1986, Carnegie Mellon
 University), and the Gaussian 82(TM) system (copyright 1983,
 Carnegie Mellon University). Gaussian is a federally registered
 trademark of Gaussian, Inc.
  
 This software contains proprietary and confidential information,
 including trade secrets, belonging to Gaussian, Inc.
  
 This software is provided under written license and may be
 used, copied, transmitted, or stored only in accord with that
 written license.
  
 The following legend is applicable only to US Government
 contracts under FAR:
  
                    RESTRICTED RIGHTS LEGEND
  
 Use, reproduction and disclosure by the US Government is
 subject to restrictions as set forth in subparagraphs (a)
 and (c) of the Commercial Computer Software - Restricted
 Rights clause in FAR 52.227-19.
  
 Gaussian, Inc.
 340 Quinnipiac St., Bldg. 40, Wallingford CT 06492
  
  
 ---------------------------------------------------------------
 Warning -- This program may not be used in any manner that
 competes with the business of Gaussian, Inc. or will provide
 assistance to any competitor of Gaussian, Inc.  The licensee
 of this program is prohibited from giving any competitor of
 Gaussian, Inc. access to this program.  By using this program,
 the user acknowledges that Gaussian, Inc. is engaged in the
 business of creating and licensing software in the field of
 computational chemistry and represents and warrants to the
 licensee that it is not a competitor of Gaussian, Inc. and that
 it will not use this program in any manner prohibited above.
 ---------------------------------------------------------------
  

 Cite this work as:
 Gaussian 16, Revision C.01,
 M. J. Frisch, G. W. Trucks, H. B. Schlegel, G. E. Scuseria, 
 M. A. Robb, J. R. Cheeseman, G. Scalmani, V. Barone, 
 G. A. Petersson, H. Nakatsuji, X. Li, M. Caricato, A. V. Marenich, 
 J. Bloino, B. G. Janesko, R. Gomperts, B. Mennucci, H. P. Hratchian, 
 J. V. Ortiz, A. F. Izmaylov, J. L. Sonnenberg, D. Williams-Young, 
 F. Ding, F. Lipparini, F. Egidi, J. Goings, B. Peng, A. Petrone, 
 T. Henderson, D. Ranasinghe, V. G. Zakrzewski, J. Gao, N. Rega, 
 G. Zheng, W. Liang, M. Hada, M. Ehara, K. Toyota, R. Fukuda, 
 J. Hasegawa, M. Ishida, T. Nakajima, Y. Honda, O. Kitao, H. Nakai, 
 T. Vreven, K. Throssell, J. A. Montgomery, Jr., J. E. Peralta, 
 F. Ogliaro, M. J. Bearpark, J. J. Heyd, E. N. Brothers, K. N. Kudin, 
 V. N. Staroverov, T. A. Keith, R. Kobayashi, J. Normand, 
 K. Raghavachari, A. P. Rendell, J. C. Burant, S. S. Iyengar, 
 J. Tomasi, M. Cossi, J. M. Millam, M. Klene, C. Adamo, R. Cammi, 
 J. W. Ochterski, R. L. Martin, K. Morokuma, O. Farkas, 
 J. B. Foresman, and D. J. Fox, Gaussian, Inc., Wallingford CT, 2019.
 
 ******************************************
 Gaussian 16:  ES64L-G16RevC.01  3-Jul-2019
                 7-Dec-2024 
 ******************************************
 Default route: SCF=Direct
 ----------------------------------------------------
 # m06/genecp scf=tight int=ultrafine 5d freq=noraman
 ----------------------------------------------------
 1/10=4,30=1,38=1/1,3;
 2/12=2,17=6,18=5,40=1/2;
 3/5=7,8=1,11=2,16=1,17=8,25=1,30=1,71=2,74=-54,75=-5,140=1/1,2,3;
 4//1;
 5/5=2,32=2,38=5,98=1/2;
 8/6=4,10=90,11=11/1;
 11/6=1,8=1,9=11,15=111,16=1/1,2,10;
 10/6=1/2;
 6/7=2,8=2,9=2,10=2,28=1/1;
 7/8=1,10=1,25=1/1,2,3,16;
 1/10=4,30=1/3;
 99//99;
 ------
 OPT-TS
 ------
 Symbolic Z-matrix:
 Charge =  0 Multiplicity = 1
 C                    -1.58673   2.14247   0.69689 
 C                    -2.12185  -0.1215    0.81572 
 C                    -3.2458    0.13631   1.57951 
 C                    -3.52948   1.44804   1.94714 
 C                    -2.6834    2.44909   1.51094 
 C                    -0.70898   3.19504   0.14877 
 C                     1.21594   3.67526  -1.01781 
 C                     0.974     5.04398  -0.95978 
 C                    -0.17373   5.4851   -0.31618 
 C                    -1.02843   4.55032   0.24902 
 H                    -1.84327  -1.13641   0.52724 
 H                    -4.3958    1.67454   2.56678 
 H                    -2.87521   3.47772   1.80073 
 H                     2.1041    3.26625  -1.49731 
 H                    -0.40933   6.54602  -0.25896 
 H                    -1.9422    4.88303   0.73433 
 N                    -1.31061   0.85756   0.37869 
 N                     0.39469   2.77548  -0.48158 
 Ir                    0.40879   0.29432  -0.80731 
 O                     1.44758   0.63564   2.08313 
 O                     3.2906   -0.6587   -0.0184 
 O                    -1.14452  -2.32946  -0.87798 
 B                     2.46534   0.30564  -0.59047 
 B                     0.99661  -0.22731   1.09369 
 B                    -0.26245  -1.48994  -1.6001 
 O                     0.52466  -2.30223  -2.45036 
 O                     0.64752  -1.45122   1.63296 
 C                     1.10444  -1.49663   2.99337 
 C                     1.2208    0.01579   3.35993 
 C                    -0.82334  -3.69632  -1.15802 
 C                     0.5749   -3.59246  -1.84875 
 C                     4.65313  -0.2481   -0.22046 
 C                     4.51173   1.29103  -0.38995 
 O                     3.21694   1.40324  -0.99948 
 C                    -0.07287   0.60387   3.90869 
 H                    -0.28893   0.24951   4.92538 
 H                     0.0214    1.69742   3.93469 
 H                    -0.92902   0.35404   3.26703 
 C                     2.37107   0.36045   4.28445 
 H                     2.26054  -0.14404   5.25521 
 H                     3.3367    0.07303   3.85211 
 H                     2.38988   1.4434    4.46368 
 C                     0.09299  -2.27354   3.81432 
 H                     0.0894   -3.3244    3.49747 
 H                     0.34539  -2.24397   4.88418 
 H                    -0.92403  -1.88381   3.6809 
 C                     2.4402   -2.22544   2.98019 
 H                     2.28784  -3.2228    2.54573 
 H                     3.16524  -1.69908   2.34599 
 H                     2.85567  -2.34797   3.98954 
 C                     5.48543  -0.68061   0.96901 
 H                     5.51687  -1.77676   1.02208 
 H                     6.51818  -0.315     0.87587 
 H                     5.06867  -0.30655   1.91202 
 C                     5.14124  -0.94817  -1.48153 
 H                     5.02109  -2.03094  -1.35058 
 H                     4.54819  -0.64843  -2.35569 
 H                     6.20041  -0.74039  -1.68464 
 C                     4.44627   2.04051   0.93473 
 H                     4.13936   3.07582   0.73315 
 H                     3.69602   1.59702   1.60312 
 H                     5.41951   2.06413   1.44368 
 C                     5.54069   1.92872  -1.30096 
 H                     5.49373   1.51992  -2.31607 
 H                     5.35984   3.00999  -1.36335 
 H                     6.55643   1.77969  -0.90735 
 C                     1.73662  -3.60599  -0.85867 
 H                     1.59424  -2.87404  -0.05429 
 H                     1.88653  -4.60188  -0.41712 
 H                     2.6507   -3.32325  -1.39823 
 C                     0.82538  -4.63024  -2.92739 
 H                     0.09938  -4.55572  -3.74457 
 H                     1.82545  -4.47826  -3.35322 
 H                     0.78578  -5.6477   -2.51161 
 C                    -1.90023  -4.24643  -2.08332 
 H                    -1.77106  -5.32134  -2.26927 
 H                    -2.88373  -4.09662  -1.61775 
 H                    -1.89298  -3.72675  -3.05137 
 C                    -0.8311   -4.4575    0.15479 
 H                    -0.50465  -5.49847   0.01577 
 H                    -0.17904  -3.96811   0.88797 
 H                    -1.85041  -4.47142   0.56486 
 H                     1.61772  -0.20476  -1.80495 
 C                    -2.96006   1.39182  -2.17011 
 O                    -2.20056   2.35293  -2.27426 
 C                    -4.42525   1.59583  -1.80795 
 H                    -5.05761   1.26541  -2.64728 
 H                    -4.69665   0.93854  -0.96514 
 C                    -1.12535  -0.14676  -2.61235 
 H                    -1.03752  -0.81269  -3.48156 
 H                    -0.68709   0.805    -2.95082 
 N                    -2.53643   0.10676  -2.3418 
 C                    -3.44543  -1.02204  -2.29919 
 H                    -3.59982  -1.4137   -1.28172 
 H                    -4.41771  -0.75955  -2.72964 
 H                    -3.02569  -1.83654  -2.8973 
 C                    -4.72483   3.04549  -1.47809 
 H                    -4.12499   3.38455  -0.62294 
 H                    -4.47348   3.69839  -2.32059 
 C                    -4.17161  -0.96815   1.97524 
 F                    -5.35391  -0.83448   1.35447 
 F                    -3.68731  -2.17021   1.66818 
 F                    -4.42018  -0.94343   3.29025 
 H                     1.67034   5.74177  -1.41886 
 H                    -5.78521   3.17853  -1.23153 
 

 GradGradGradGradGradGradGradGradGradGradGradGradGradGradGradGradGradGrad
 Berny optimization.
 Initialization pass.
 Trust Radius=3.00D-01 FncErr=1.00D-07 GrdErr=1.00D-07 EigMax=2.50D+02 EigMin=1.00D-04
 Number of steps in this run=      2 maximum allowed number of steps=      2.
 GradGradGradGradGradGradGradGradGradGradGradGradGradGradGradGradGradGrad

 Stoichiometry    C34H54B3F3IrN3O7
 Framework group  C1[X(C34H54B3F3IrN3O7)]
 Deg. of freedom   309
 Full point group                 C1      NOp   1
 Largest Abelian subgroup         C1      NOp   1
 Largest concise Abelian subgroup C1      NOp   1
                         Standard orientation:                         
 ---------------------------------------------------------------------
 Center     Atomic      Atomic             Coordinates (Angstroms)
 Number     Number       Type             X           Y           Z
 ---------------------------------------------------------------------
      1          6           0       -1.586732    2.142470    0.696890
      2          6           0       -2.121851   -0.121500    0.815720
      3          6           0       -3.245801    0.136309    1.579510
      4          6           0       -3.529482    1.448039    1.947140
      5          6           0       -2.683402    2.449090    1.510940
      6          6           0       -0.708983    3.195041    0.148770
      7          6           0        1.215937    3.675262   -1.017810
      8          6           0        0.973996    5.043982   -0.959780
      9          6           0       -0.173734    5.485101   -0.316180
     10          6           0       -1.028433    4.550321    0.249020
     11          1           0       -1.843270   -1.136410    0.527240
     12          1           0       -4.395802    1.674539    2.566780
     13          1           0       -2.875213    3.477720    1.800730
     14          1           0        2.104097    3.266252   -1.497310
     15          1           0       -0.409334    6.546021   -0.258960
     16          1           0       -1.942203    4.883030    0.734330
     17          7           0       -1.310611    0.857560    0.378690
     18          7           0        0.394688    2.775481   -0.481580
     19         77           0        0.408789    0.294321   -0.807310
     20          8           0        1.447579    0.635642    2.083130
     21          8           0        3.290600   -0.658697   -0.018400
     22          8           0       -1.144520   -2.329460   -0.877980
     23          5           0        2.465339    0.305642   -0.590470
     24          5           0        0.996609   -0.227308    1.093690
     25          5           0       -0.262450   -1.489939   -1.600100
     26          8           0        0.524660   -2.302229   -2.450360
     27          8           0        0.647520   -1.451219    1.632960
     28          6           0        1.104440   -1.496628    2.993370
     29          6           0        1.220799    0.015792    3.359930
     30          6           0       -0.823339   -3.696319   -1.158020
     31          6           0        0.574901   -3.592459   -1.848750
     32          6           0        4.653129   -0.248096   -0.220460
     33          6           0        4.511728    1.291033   -0.389950
     34          8           0        3.216938    1.403243   -0.999480
     35          6           0       -0.072871    0.603871    3.908690
     36          1           0       -0.288931    0.249511    4.925380
     37          1           0        0.021398    1.697421    3.934690
     38          1           0       -0.929021    0.354041    3.267030
     39          6           0        2.371069    0.360452    4.284450
     40          1           0        2.260539   -0.144038    5.255210
     41          1           0        3.336699    0.073033    3.852110
     42          1           0        2.389878    1.443402    4.463680
     43          6           0        0.092990   -2.273539    3.814320
     44          1           0        0.089401   -3.324399    3.497470
     45          1           0        0.345390   -2.243969    4.884180
     46          1           0       -0.924030   -1.883809    3.680900
     47          6           0        2.440200   -2.225438    2.980190
     48          1           0        2.287841   -3.222798    2.545730
     49          1           0        3.165240   -1.699077    2.345990
     50          1           0        2.855670   -2.347967    3.989540
     51          6           0        5.485430   -0.680606    0.969010
     52          1           0        5.516870   -1.776756    1.022080
     53          1           0        6.518179   -0.314995    0.875870
     54          1           0        5.068669   -0.306546    1.912020
     55          6           0        5.141240   -0.948166   -1.481530
     56          1           0        5.021090   -2.030936   -1.350580
     57          1           0        4.548190   -0.648427   -2.355690
     58          1           0        6.200410   -0.740386   -1.684640
     59          6           0        4.446268    2.040513    0.934730
     60          1           0        4.139358    3.075823    0.733150
     61          1           0        3.696018    1.597023    1.603120
     62          1           0        5.419508    2.064134    1.443680
     63          6           0        5.540688    1.928724   -1.300960
     64          1           0        5.493728    1.519924   -2.316070
     65          1           0        5.359838    3.009994   -1.363350
     66          1           0        6.556428    1.779695   -0.907350
     67          6           0        1.736621   -3.605988   -0.858670
     68          1           0        1.594241   -2.874038   -0.054290
     69          1           0        1.886532   -4.601878   -0.417120
     70          1           0        2.650701   -3.323248   -1.398230
     71          6           0        0.825382   -4.630239   -2.927390
     72          1           0        0.099382   -4.555719   -3.744570
     73          1           0        1.825452   -4.478258   -3.353220
     74          1           0        0.785782   -5.647699   -2.511610
     75          6           0       -1.900229   -4.246430   -2.083320
     76          1           0       -1.771058   -5.321340   -2.269270
     77          1           0       -2.883729   -4.096620   -1.617750
     78          1           0       -1.892979   -3.726750   -3.051370
     79          6           0       -0.831098   -4.457499    0.154790
     80          1           0       -0.504648   -5.498469    0.015770
     81          1           0       -0.179039   -3.968109    0.887970
     82          1           0       -1.850408   -4.471420    0.564860
     83          1           0        1.617719   -0.204758   -1.804950
     84          6           0       -2.960062    1.391819   -2.170110
     85          8           0       -2.200562    2.352930   -2.274260
     86          6           0       -4.425252    1.595829   -1.807950
     87          1           0       -5.057611    1.265408   -2.647280
     88          1           0       -4.696651    0.938539   -0.965140
     89          6           0       -1.125351   -0.146760   -2.612350
     90          1           0       -1.037520   -0.812689   -3.481560
     91          1           0       -0.687091    0.805001   -2.950820
     92          7           0       -2.536431    0.106760   -2.341800
     93          6           0       -3.445430   -1.022041   -2.299190
     94          1           0       -3.599820   -1.413701   -1.281720
     95          1           0       -4.417710   -0.759551   -2.729640
     96          1           0       -3.025690   -1.836541   -2.897300
     97          6           0       -4.724832    3.045489   -1.478090
     98          1           0       -4.124993    3.384549   -0.622940
     99          1           0       -4.473483    3.698389   -2.320590
    100          6           0       -4.171610   -0.968151    1.975240
    101          9           0       -5.353910   -0.834482    1.354470
    102          9           0       -3.687310   -2.170211    1.668180
    103          9           0       -4.420180   -0.943431    3.290250
    104          1           0        1.670336    5.741772   -1.418860
    105          1           0       -5.785213    3.178528   -1.231530
 ---------------------------------------------------------------------
 Rotational constants (GHZ):           0.0721078           0.0565019           0.0495797
 General basis read from cards:  (5D, 7F)
 ======================================================================================================
                                       Pseudopotential Parameters
 ======================================================================================================
  Center     Atomic      Valence      Angular      Power
  Number     Number     Electrons     Momentum     of R      Exponent        Coefficient   SO-Coeffient
 ======================================================================================================
    1          6
                                   No pseudopotential on this center.
    2          6
                                   No pseudopotential on this center.
    3          6
                                   No pseudopotential on this center.
    4          6
                                   No pseudopotential on this center.
    5          6
                                   No pseudopotential on this center.
    6          6
                                   No pseudopotential on this center.
    7          6
                                   No pseudopotential on this center.
    8          6
                                   No pseudopotential on this center.
    9          6
                                   No pseudopotential on this center.
   10          6
                                   No pseudopotential on this center.
   11          1
                                   No pseudopotential on this center.
   12          1
                                   No pseudopotential on this center.
   13          1
                                   No pseudopotential on this center.
   14          1
                                   No pseudopotential on this center.
   15          1
                                   No pseudopotential on this center.
   16          1
                                   No pseudopotential on this center.
   17          7
                                   No pseudopotential on this center.
   18          7
                                   No pseudopotential on this center.
   19         77           17
                                      G and up 
                                                     1      823.5880147       -0.15780140    0.00000000
                                                     2      364.6613336    -1517.52704460    0.00000000
                                                     2       55.7082801     -316.53065290    0.00000000
                                                     2       12.0464544      -91.88809410    0.00000000
                                                     2        3.5120610       -9.22417730    0.00000000
                                      S - G
                                                     0      188.0490770        3.15780140    0.00000000
                                                     1      340.4194712       26.83225770    0.00000000
                                                     2      128.2373673      800.42500070    0.00000000
                                                     2       33.8644961      369.40506830    0.00000000
                                                     2        4.7560005      242.41718990    0.00000000
                                                     2        3.9649974     -118.21732820    0.00000000
                                      P - G
                                                     0      289.7291139        2.15780140    0.00000000
                                                     1       87.4633789       61.96786100    0.00000000
                                                     2       30.4363766      269.05819860    0.00000000
                                                     2        4.0553412      231.16547930    0.00000000
                                                     2        3.5525341     -133.69526670    0.00000000
                                      D - G
                                                     0      136.4017106        3.15780140    0.00000000
                                                     1       95.0776925       45.93498030    0.00000000
                                                     2       49.2258410      359.03446680    0.00000000
                                                     2       15.0874145      176.47401190    0.00000000
                                                     2        4.0405764       54.51552860    0.00000000
                                      F - G
                                                     0      127.3507908        3.95461970    0.00000000
                                                     1       66.2364374       52.97736550    0.00000000
                                                     2       34.4299229      274.86433830    0.00000000
                                                     2       10.1995721      137.20473380    0.00000000
                                                     2        2.5409702       14.86333050    0.00000000
   20          8
                                   No pseudopotential on this center.
   21          8
                                   No pseudopotential on this center.
   22          8
                                   No pseudopotential on this center.
   23          5
                                   No pseudopotential on this center.
   24          5
                                   No pseudopotential on this center.
   25          5
                                   No pseudopotential on this center.
   26          8
                                   No pseudopotential on this center.
   27          8
                                   No pseudopotential on this center.
   28          6
                                   No pseudopotential on this center.
   29          6
                                   No pseudopotential on this center.
   30          6
                                   No pseudopotential on this center.
   31          6
                                   No pseudopotential on this center.
   32          6
                                   No pseudopotential on this center.
   33          6
                                   No pseudopotential on this center.
   34          8
                                   No pseudopotential on this center.
   35          6
                                   No pseudopotential on this center.
   36          1
                                   No pseudopotential on this center.
   37          1
                                   No pseudopotential on this center.
   38          1
                                   No pseudopotential on this center.
   39          6
                                   No pseudopotential on this center.
   40          1
                                   No pseudopotential on this center.
   41          1
                                   No pseudopotential on this center.
   42          1
                                   No pseudopotential on this center.
   43          6
                                   No pseudopotential on this center.
   44          1
                                   No pseudopotential on this center.
   45          1
                                   No pseudopotential on this center.
   46          1
                                   No pseudopotential on this center.
   47          6
                                   No pseudopotential on this center.
   48          1
                                   No pseudopotential on this center.
   49          1
                                   No pseudopotential on this center.
   50          1
                                   No pseudopotential on this center.
   51          6
                                   No pseudopotential on this center.
   52          1
                                   No pseudopotential on this center.
   53          1
                                   No pseudopotential on this center.
   54          1
                                   No pseudopotential on this center.
   55          6
                                   No pseudopotential on this center.
   56          1
                                   No pseudopotential on this center.
   57          1
                                   No pseudopotential on this center.
   58          1
                                   No pseudopotential on this center.
   59          6
                                   No pseudopotential on this center.
   60          1
                                   No pseudopotential on this center.
   61          1
                                   No pseudopotential on this center.
   62          1
                                   No pseudopotential on this center.
   63          6
                                   No pseudopotential on this center.
   64          1
                                   No pseudopotential on this center.
   65          1
                                   No pseudopotential on this center.
   66          1
                                   No pseudopotential on this center.
   67          6
                                   No pseudopotential on this center.
   68          1
                                   No pseudopotential on this center.
   69          1
                                   No pseudopotential on this center.
   70          1
                                   No pseudopotential on this center.
   71          6
                                   No pseudopotential on this center.
   72          1
                                   No pseudopotential on this center.
   73          1
                                   No pseudopotential on this center.
   74          1
                                   No pseudopotential on this center.
   75          6
                                   No pseudopotential on this center.
   76          1
                                   No pseudopotential on this center.
   77          1
                                   No pseudopotential on this center.
   78          1
                                   No pseudopotential on this center.
   79          6
                                   No pseudopotential on this center.
   80          1
                                   No pseudopotential on this center.
   81          1
                                   No pseudopotential on this center.
   82          1
                                   No pseudopotential on this center.
   83          1
                                   No pseudopotential on this center.
   84          6
                                   No pseudopotential on this center.
   85          8
                                   No pseudopotential on this center.
   86          6
                                   No pseudopotential on this center.
   87          1
                                   No pseudopotential on this center.
   88          1
                                   No pseudopotential on this center.
   89          6
                                   No pseudopotential on this center.
   90          1
                                   No pseudopotential on this center.
   91          1
                                   No pseudopotential on this center.
   92          7
                                   No pseudopotential on this center.
   93          6
                                   No pseudopotential on this center.
   94          1
                                   No pseudopotential on this center.
   95          1
                                   No pseudopotential on this center.
   96          1
                                   No pseudopotential on this center.
   97          6
                                   No pseudopotential on this center.
   98          1
                                   No pseudopotential on this center.
   99          1
                                   No pseudopotential on this center.
  100          6
                                   No pseudopotential on this center.
  101          9
                                   No pseudopotential on this center.
  102          9
                                   No pseudopotential on this center.
  103          9
                                   No pseudopotential on this center.
  104          1
                                   No pseudopotential on this center.
  105          1
                                   No pseudopotential on this center.
 ======================================================================================================
 There are   882 symmetry adapted cartesian basis functions of A   symmetry.
 There are   830 symmetry adapted basis functions of A   symmetry.
   830 basis functions,  1659 primitive gaussians,   882 cartesian basis functions
   197 alpha electrons      197 beta electrons
       nuclear repulsion energy      8729.5529641225 Hartrees.
 NAtoms=  105 NActive=  105 NUniq=  105 SFac= 1.00D+00 NAtFMM=   60 NAOKFM=T Big=T
 Integral buffers will be    131072 words long.
 Raffenetti 2 integral format.
 Two-electron integral symmetry is turned on.
 One-electron integrals computed using PRISM.
   1 Symmetry operations used in ECPInt.
 ECPInt:  NShTT=   50086 NPrTT=  307226 LenC2=   39443 LenP2D=  123283.
 LDataN:  DoStor=T MaxTD1= 6 Len=  172
 NBasis=   830 RedAO= T EigKep=  4.85D-04  NBF=   830
 NBsUse=   830 1.00D-06 EigRej= -1.00D+00 NBFU=   830
 Defaulting to unpruned grid for atomic number  77.
 ExpMin= 2.90D-02 ExpMax= 7.00D+03 ExpMxC= 1.05D+03 IAcc=3 IRadAn=         5 AccDes= 0.00D+00
 Harris functional with IExCor= 1009 and IRadAn=       5 diagonalized for initial guess.
 HarFok:  IExCor= 1009 AccDes= 0.00D+00 IRadAn=         5 IDoV= 1 UseB2=F ITyADJ=14
 ICtDFT=  3500011 ScaDFX=  1.000000  1.000000  1.000000  1.000000
 Defaulting to unpruned grid for atomic number  77.
 FoFCou: FMM=F IPFlag=           0 FMFlag=      100000 FMFlg1=        2001
         NFxFlg=           0 DoJE=T BraDBF=F KetDBF=T FulRan=T
         wScrn=  0.000000 ICntrl=       500 IOpCl=  0 I1Cent=   200000004 NGrid=           0
         NMat0=    1 NMatS0=      1 NMatT0=    0 NMatD0=    1 NMtDS0=    0 NMtDT0=    0
 Petite list used in FoFCou.
 Requested convergence on RMS density matrix=1.00D-08 within 128 cycles.
 Requested convergence on MAX density matrix=1.00D-06.
 Requested convergence on             energy=1.00D-06.
 No special actions if energy rises.
 Defaulting to unpruned grid for atomic number  77.
 Defaulting to unpruned grid for atomic number  77.
 Defaulting to unpruned grid for atomic number  77.
 Defaulting to unpruned grid for atomic number  77.
 Defaulting to unpruned grid for atomic number  77.
 Defaulting to unpruned grid for atomic number  77.
 Defaulting to unpruned grid for atomic number  77.
 Defaulting to unpruned grid for atomic number  77.
 Defaulting to unpruned grid for atomic number  77.
 Defaulting to unpruned grid for atomic number  77.
 Defaulting to unpruned grid for atomic number  77.
 Defaulting to unpruned grid for atomic number  77.
 Defaulting to unpruned grid for atomic number  77.
 Defaulting to unpruned grid for atomic number  77.
 Defaulting to unpruned grid for atomic number  77.
 Defaulting to unpruned grid for atomic number  77.
 SCF Done:  E(RM06) =  -2496.59205357     A.U. after   16 cycles
            NFock= 16  Conv=0.64D-08     -V/T= 2.0358
 DoSCS=F DFT=T ScalE2(SS,OS)=  1.000000  1.000000
 Range of M.O.s used for correlation:     1   830
 NBasis=   830 NAE=   197 NBE=   197 NFC=     0 NFV=     0
 NROrb=    830 NOA=   197 NOB=   197 NVA=   633 NVB=   633
   1 Symmetry operations used in ECPInt.
 ECPInt:  NShTT=   50086 NPrTT=  307226 LenC2=   39443 LenP2D=  123283.
 LDataN:  DoStor=T MaxTD1= 7 Len=  274
 Number of processors reduced to   8 by ecpmxn.
 Symmetrizing basis deriv contribution to polar:
 IMax=3 JMax=2 DiffMx= 0.00D+00
 G2DrvN: will do   106 centers at a time, making    1 passes.
 Calling FoFCou, ICntrl=  3107 FMM=T I1Cent=   0 AccDes= 0.00D+00.
 Defaulting to unpruned grid for atomic number  77.
 Defaulting to unpruned grid for atomic number  77.
 Defaulting to unpruned grid for atomic number  77.
 Defaulting to unpruned grid for atomic number  77.
 Defaulting to unpruned grid for atomic number  77.
 Defaulting to unpruned grid for atomic number  77.
 Defaulting to unpruned grid for atomic number  77.
 Defaulting to unpruned grid for atomic number  77.
 Defaulting to unpruned grid for atomic number  77.
 Defaulting to unpruned grid for atomic number  77.
 Defaulting to unpruned grid for atomic number  77.
 Defaulting to unpruned grid for atomic number  77.
 Defaulting to unpruned grid for atomic number  77.
 Defaulting to unpruned grid for atomic number  77.
 Defaulting to unpruned grid for atomic number  77.
 Defaulting to unpruned grid for atomic number  77.
 End of G2Drv F.D. properties file   721 does not exist.
 End of G2Drv F.D. properties file   722 does not exist.
 End of G2Drv F.D. properties file   788 does not exist.
          IDoAtm=11111111111111111111111111111111111111111111111111
          IDoAtm=11111111111111111111111111111111111111111111111111
          IDoAtm=11111
          Differentiating once with respect to electric field.
                with respect to dipole field.
          Differentiating once with respect to nuclear coordinates.
 Defaulting to unpruned grid for atomic number  77.
 CalDSu exits because no D1Ps are significant.
 Defaulting to unpruned grid for atomic number  77.
 Defaulting to unpruned grid for atomic number  77.
 Defaulting to unpruned grid for atomic number  77.
 Defaulting to unpruned grid for atomic number  77.
 Defaulting to unpruned grid for atomic number  77.
 Defaulting to unpruned grid for atomic number  77.
 Defaulting to unpruned grid for atomic number  77.
 Defaulting to unpruned grid for atomic number  77.
 Defaulting to unpruned grid for atomic number  77.
 Defaulting to unpruned grid for atomic number  77.
 Defaulting to unpruned grid for atomic number  77.
 Defaulting to unpruned grid for atomic number  77.
 Defaulting to unpruned grid for atomic number  77.
 Defaulting to unpruned grid for atomic number  77.
 Defaulting to unpruned grid for atomic number  77.
 Defaulting to unpruned grid for atomic number  77.
          There are   318 degrees of freedom in the 1st order CPHF.  IDoFFX=6 NUNeed=     3.
    315 vectors produced by pass  0 Test12= 1.25D-13 1.00D-09 XBig12= 4.98D+02 5.97D+00.
 AX will form    72 AO Fock derivatives at one time.
    315 vectors produced by pass  1 Test12= 1.25D-13 1.00D-09 XBig12= 9.03D+01 8.07D-01.
    315 vectors produced by pass  2 Test12= 1.25D-13 1.00D-09 XBig12= 9.84D-01 8.20D-02.
    315 vectors produced by pass  3 Test12= 1.25D-13 1.00D-09 XBig12= 6.32D-03 5.42D-03.
    315 vectors produced by pass  4 Test12= 1.25D-13 1.00D-09 XBig12= 2.09D-05 2.68D-04.
    283 vectors produced by pass  5 Test12= 1.25D-13 1.00D-09 XBig12= 3.88D-08 1.29D-05.
     78 vectors produced by pass  6 Test12= 1.25D-13 1.00D-09 XBig12= 5.52D-11 5.43D-07.
      3 vectors produced by pass  7 Test12= 1.25D-13 1.00D-09 XBig12= 7.38D-14 2.34D-08.
 InvSVY:  IOpt=1 It=  1 EMax= 1.42D-14
 Solved reduced A of dimension  1939 with   318 vectors.
 Isotropic polarizability for W=    0.000000      471.49 Bohr**3.
 End of Minotr F.D. properties file   721 does not exist.
 End of Minotr F.D. properties file   722 does not exist.
 End of Minotr F.D. properties file   788 does not exist.
 Hyperfine terms turned off by default for NAtoms > 100.

 **********************************************************************

            Population analysis using the SCF Density.

 **********************************************************************

 Orbital symmetries:
       Occupied  (A) (A) (A) (A) (A) (A) (A) (A) (A) (A) (A) (A)
                 (A) (A) (A) (A) (A) (A) (A) (A) (A) (A) (A) (A)
                 (A) (A) (A) (A) (A) (A) (A) (A) (A) (A) (A) (A)
                 (A) (A) (A) (A) (A) (A) (A) (A) (A) (A) (A) (A)
                 (A) (A) (A) (A) (A) (A) (A) (A) (A) (A) (A) (A)
                 (A) (A) (A) (A) (A) (A) (A) (A) (A) (A) (A) (A)
                 (A) (A) (A) (A) (A) (A) (A) (A) (A) (A) (A) (A)
                 (A) (A) (A) (A) (A) (A) (A) (A) (A) (A) (A) (A)
                 (A) (A) (A) (A) (A) (A) (A) (A) (A) (A) (A) (A)
                 (A) (A) (A) (A) (A) (A) (A) (A) (A) (A) (A) (A)
                 (A) (A) (A) (A) (A) (A) (A) (A) (A) (A) (A) (A)
                 (A) (A) (A) (A) (A) (A) (A) (A) (A) (A) (A) (A)
                 (A) (A) (A) (A) (A) (A) (A) (A) (A) (A) (A) (A)
                 (A) (A) (A) (A) (A) (A) (A) (A) (A) (A) (A) (A)
                 (A) (A) (A) (A) (A) (A) (A) (A) (A) (A) (A) (A)
                 (A) (A) (A) (A) (A) (A) (A) (A) (A) (A) (A) (A)
                 (A) (A) (A) (A) (A)
       Virtual   (A) (A) (A) (A) (A) (A) (A) (A) (A) (A) (A) (A)
                 (A) (A) (A) (A) (A) (A) (A) (A) (A) (A) (A) (A)
                 (A) (A) (A) (A) (A) (A) (A) (A) (A) (A) (A) (A)
                 (A) (A) (A) (A) (A) (A) (A) (A) (A) (A) (A) (A)
                 (A) (A) (A) (A) (A) (A) (A) (A) (A) (A) (A) (A)
                 (A) (A) (A) (A) (A) (A) (A) (A) (A) (A) (A) (A)
                 (A) (A) (A) (A) (A) (A) (A) (A) (A) (A) (A) (A)
                 (A) (A) (A) (A) (A) (A) (A) (A) (A) (A) (A) (A)
                 (A) (A) (A) (A) (A) (A) (A) (A) (A) (A) (A) (A)
                 (A) (A) (A) (A) (A) (A) (A) (A) (A) (A) (A) (A)
                 (A) (A) (A) (A) (A) (A) (A) (A) (A) (A) (A) (A)
                 (A) (A) (A) (A) (A) (A) (A) (A) (A) (A) (A) (A)
                 (A) (A) (A) (A) (A) (A) (A) (A) (A) (A) (A) (A)
                 (A) (A) (A) (A) (A) (A) (A) (A) (A) (A) (A) (A)
                 (A) (A) (A) (A) (A) (A) (A) (A) (A) (A) (A) (A)
                 (A) (A) (A) (A) (A) (A) (A) (A) (A) (A) (A) (A)
                 (A) (A) (A) (A) (A) (A) (A) (A) (A) (A) (A) (A)
                 (A) (A) (A) (A) (A) (A) (A) (A) (A) (A) (A) (A)
                 (A) (A) (A) (A) (A) (A) (A) (A) (A) (A) (A) (A)
                 (A) (A) (A) (A) (A) (A) (A) (A) (A) (A) (A) (A)
                 (A) (A) (A) (A) (A) (A) (A) (A) (A) (A) (A) (A)
                 (A) (A) (A) (A) (A) (A) (A) (A) (A) (A) (A) (A)
                 (A) (A) (A) (A) (A) (A) (A) (A) (A) (A) (A) (A)
                 (A) (A) (A) (A) (A) (A) (A) (A) (A) (A) (A) (A)
                 (A) (A) (A) (A) (A) (A) (A) (A) (A) (A) (A) (A)
                 (A) (A) (A) (A) (A) (A) (A) (A) (A) (A) (A) (A)
                 (A) (A) (A) (A) (A) (A) (A) (A) (A) (A) (A) (A)
                 (A) (A) (A) (A) (A) (A) (A) (A) (A) (A) (A) (A)
                 (A) (A) (A) (A) (A) (A) (A) (A) (A) (A) (A) (A)
                 (A) (A) (A) (A) (A) (A) (A) (A) (A) (A) (A) (A)
                 (A) (A) (A) (A) (A) (A) (A) (A) (A) (A) (A) (A)
                 (A) (A) (A) (A) (A) (A) (A) (A) (A) (A) (A) (A)
                 (A) (A) (A) (A) (A) (A) (A) (A) (A) (A) (A) (A)
                 (A) (A) (A) (A) (A) (A) (A) (A) (A) (A) (A) (A)
                 (A) (A) (A) (A) (A) (A) (A) (A) (A) (A) (A) (A)
                 (A) (A) (A) (A) (A) (A) (A) (A) (A) (A) (A) (A)
                 (A) (A) (A) (A) (A) (A) (A) (A) (A) (A) (A) (A)
                 (A) (A) (A) (A) (A) (A) (A) (A) (A) (A) (A) (A)
                 (A) (A) (A) (A) (A) (A) (A) (A) (A) (A) (A) (A)
                 (A) (A) (A) (A) (A) (A) (A) (A) (A) (A) (A) (A)
                 (A) (A) (A) (A) (A) (A) (A) (A) (A) (A) (A) (A)
                 (A) (A) (A) (A) (A) (A) (A) (A) (A) (A) (A) (A)
                 (A) (A) (A) (A) (A) (A) (A) (A) (A) (A) (A) (A)
                 (A) (A) (A) (A) (A) (A) (A) (A) (A) (A) (A) (A)
                 (A) (A) (A) (A) (A) (A) (A) (A) (A) (A) (A) (A)
                 (A) (A) (A) (A) (A) (A) (A) (A) (A) (A) (A) (A)
                 (A) (A) (A) (A) (A) (A) (A) (A) (A) (A) (A) (A)
                 (A) (A) (A) (A) (A) (A) (A) (A) (A) (A) (A) (A)
                 (A) (A) (A) (A) (A) (A) (A) (A) (A) (A) (A) (A)
                 (A) (A) (A) (A) (A) (A) (A) (A) (A) (A) (A) (A)
                 (A) (A) (A) (A) (A) (A) (A) (A) (A) (A) (A) (A)
                 (A) (A) (A) (A) (A) (A) (A) (A) (A) (A) (A) (A)
                 (A) (A) (A) (A) (A) (A) (A) (A) (A)
 The electronic state is 1-A.
 Alpha  occ. eigenvalues --  -24.83386 -24.83029 -24.82863 -19.21132 -19.20952
 Alpha  occ. eigenvalues --  -19.20941 -19.20860 -19.18895 -19.17747 -19.17564
 Alpha  occ. eigenvalues --  -14.46817 -14.42361 -14.41687 -10.51588 -10.33307
 Alpha  occ. eigenvalues --  -10.33069 -10.31148 -10.31095 -10.30356 -10.30120
 Alpha  occ. eigenvalues --  -10.29865 -10.29838 -10.29818 -10.29521 -10.29101
 Alpha  occ. eigenvalues --  -10.28954 -10.28335 -10.28050 -10.27816 -10.27557
 Alpha  occ. eigenvalues --  -10.26936 -10.26514 -10.24783 -10.24691 -10.23464
 Alpha  occ. eigenvalues --  -10.23361 -10.23297 -10.23209 -10.23188 -10.23111
 Alpha  occ. eigenvalues --  -10.22610 -10.22342 -10.22312 -10.21954 -10.21534
 Alpha  occ. eigenvalues --  -10.21499 -10.20015  -6.82425  -6.81449  -6.79867
 Alpha  occ. eigenvalues --   -3.63107  -2.06593  -2.05669  -2.03159  -1.35942
 Alpha  occ. eigenvalues --   -1.27459  -1.26947  -1.07118  -1.06822  -1.04446
 Alpha  occ. eigenvalues --   -1.03432  -1.00498  -1.00116  -1.00055  -0.97663
 Alpha  occ. eigenvalues --   -0.96952  -0.92946  -0.86735  -0.83564  -0.82877
 Alpha  occ. eigenvalues --   -0.81080  -0.80866  -0.79069  -0.78597  -0.78098
 Alpha  occ. eigenvalues --   -0.75427  -0.75298  -0.73817  -0.73459  -0.71136
 Alpha  occ. eigenvalues --   -0.71040  -0.70686  -0.69288  -0.68831  -0.68761
 Alpha  occ. eigenvalues --   -0.68570  -0.68144  -0.67940  -0.66186  -0.64727
 Alpha  occ. eigenvalues --   -0.63918  -0.62791  -0.62434  -0.61980  -0.61852
 Alpha  occ. eigenvalues --   -0.61734  -0.60992  -0.59948  -0.56564  -0.55631
 Alpha  occ. eigenvalues --   -0.55359  -0.54800  -0.53976  -0.53894  -0.53625
 Alpha  occ. eigenvalues --   -0.52881  -0.52201  -0.51780  -0.49930  -0.49767
 Alpha  occ. eigenvalues --   -0.49471  -0.49359  -0.49112  -0.48659  -0.48583
 Alpha  occ. eigenvalues --   -0.47751  -0.47597  -0.46996  -0.46804  -0.46758
 Alpha  occ. eigenvalues --   -0.46578  -0.45930  -0.45613  -0.45385  -0.45141
 Alpha  occ. eigenvalues --   -0.45029  -0.44812  -0.44698  -0.44318  -0.44015
 Alpha  occ. eigenvalues --   -0.43885  -0.43849  -0.43265  -0.43256  -0.42890
 Alpha  occ. eigenvalues --   -0.42831  -0.42175  -0.41953  -0.41179  -0.40746
 Alpha  occ. eigenvalues --   -0.40644  -0.40466  -0.40215  -0.40041  -0.39972
 Alpha  occ. eigenvalues --   -0.39775  -0.39739  -0.39617  -0.39462  -0.39173
 Alpha  occ. eigenvalues --   -0.38838  -0.38706  -0.38334  -0.38196  -0.38106
 Alpha  occ. eigenvalues --   -0.37979  -0.37913  -0.37769  -0.37186  -0.37059
 Alpha  occ. eigenvalues --   -0.36962  -0.36847  -0.36359  -0.36156  -0.35715
 Alpha  occ. eigenvalues --   -0.35469  -0.35389  -0.35173  -0.35115  -0.34901
 Alpha  occ. eigenvalues --   -0.34712  -0.34542  -0.33976  -0.33467  -0.33208
 Alpha  occ. eigenvalues --   -0.32795  -0.32586  -0.32159  -0.32134  -0.31476
 Alpha  occ. eigenvalues --   -0.31074  -0.30802  -0.30459  -0.30325  -0.30039
 Alpha  occ. eigenvalues --   -0.29109  -0.28574  -0.27361  -0.27184  -0.26636
 Alpha  occ. eigenvalues --   -0.26280  -0.25176  -0.24849  -0.24129  -0.22263
 Alpha  occ. eigenvalues --   -0.19901  -0.17740
 Alpha virt. eigenvalues --   -0.07734  -0.04581  -0.02229   0.01048   0.01394
 Alpha virt. eigenvalues --    0.03942   0.05335   0.05384   0.06218   0.06562
 Alpha virt. eigenvalues --    0.07465   0.07986   0.09224   0.09466   0.10039
 Alpha virt. eigenvalues --    0.10480   0.10653   0.11052   0.11580   0.11970
 Alpha virt. eigenvalues --    0.12188   0.12375   0.12677   0.12831   0.13057
 Alpha virt. eigenvalues --    0.13587   0.13665   0.14163   0.14602   0.14637
 Alpha virt. eigenvalues --    0.15054   0.15318   0.15473   0.15578   0.15848
 Alpha virt. eigenvalues --    0.16241   0.16302   0.16495   0.16563   0.16787
 Alpha virt. eigenvalues --    0.17014   0.17186   0.17262   0.17518   0.17710
 Alpha virt. eigenvalues --    0.17924   0.17978   0.18333   0.18714   0.18834
 Alpha virt. eigenvalues --    0.18941   0.19192   0.19374   0.19542   0.19715
 Alpha virt. eigenvalues --    0.20053   0.20223   0.20233   0.20537   0.20722
 Alpha virt. eigenvalues --    0.21196   0.21407   0.21593   0.21706   0.22032
 Alpha virt. eigenvalues --    0.22308   0.22430   0.22514   0.22718   0.22896
 Alpha virt. eigenvalues --    0.23100   0.23420   0.23700   0.23798   0.23909
 Alpha virt. eigenvalues --    0.24095   0.24235   0.24334   0.24765   0.25191
 Alpha virt. eigenvalues --    0.25400   0.25834   0.25970   0.26170   0.26315
 Alpha virt. eigenvalues --    0.26766   0.26919   0.27101   0.27662   0.27920
 Alpha virt. eigenvalues --    0.28194   0.28448   0.28644   0.28950   0.29599
 Alpha virt. eigenvalues --    0.29889   0.30505   0.30808   0.31396   0.31852
 Alpha virt. eigenvalues --    0.32323   0.32837   0.33539   0.34063   0.34516
 Alpha virt. eigenvalues --    0.35110   0.35925   0.36048   0.37041   0.37608
 Alpha virt. eigenvalues --    0.38181   0.38764   0.39155   0.39424   0.39725
 Alpha virt. eigenvalues --    0.41461   0.42459   0.43644   0.43882   0.45315
 Alpha virt. eigenvalues --    0.47058   0.47293   0.47860   0.48457   0.48781
 Alpha virt. eigenvalues --    0.49351   0.49502   0.50115   0.50525   0.51199
 Alpha virt. eigenvalues --    0.51509   0.51625   0.52048   0.52489   0.52856
 Alpha virt. eigenvalues --    0.53334   0.53815   0.54047   0.54227   0.55214
 Alpha virt. eigenvalues --    0.55291   0.55993   0.56063   0.56457   0.56944
 Alpha virt. eigenvalues --    0.57338   0.57546   0.57735   0.57965   0.58156
 Alpha virt. eigenvalues --    0.58383   0.58674   0.59222   0.59483   0.59531
 Alpha virt. eigenvalues --    0.59982   0.60086   0.60267   0.60624   0.60820
 Alpha virt. eigenvalues --    0.61395   0.61628   0.61922   0.62155   0.62694
 Alpha virt. eigenvalues --    0.63099   0.63491   0.63849   0.64093   0.64456
 Alpha virt. eigenvalues --    0.64779   0.65086   0.65347   0.65700   0.66063
 Alpha virt. eigenvalues --    0.66383   0.66421   0.67071   0.67317   0.67469
 Alpha virt. eigenvalues --    0.68050   0.68617   0.68877   0.69341   0.69547
 Alpha virt. eigenvalues --    0.69743   0.70407   0.70881   0.71043   0.71308
 Alpha virt. eigenvalues --    0.71650   0.71985   0.72491   0.72943   0.73180
 Alpha virt. eigenvalues --    0.73578   0.73950   0.74080   0.74290   0.74489
 Alpha virt. eigenvalues --    0.74629   0.74998   0.75560   0.76018   0.77137
 Alpha virt. eigenvalues --    0.77365   0.77638   0.78111   0.78641   0.78830
 Alpha virt. eigenvalues --    0.79199   0.79297   0.80269   0.80752   0.80896
 Alpha virt. eigenvalues --    0.81114   0.81881   0.82067   0.82230   0.82509
 Alpha virt. eigenvalues --    0.82831   0.83244   0.83561   0.83693   0.84467
 Alpha virt. eigenvalues --    0.84547   0.84750   0.84838   0.85066   0.85336
 Alpha virt. eigenvalues --    0.85522   0.85650   0.86200   0.86450   0.86588
 Alpha virt. eigenvalues --    0.86809   0.87001   0.87253   0.88049   0.88332
 Alpha virt. eigenvalues --    0.88524   0.88790   0.89116   0.89252   0.89418
 Alpha virt. eigenvalues --    0.89616   0.89814   0.90124   0.90315   0.90463
 Alpha virt. eigenvalues --    0.91088   0.91229   0.91493   0.91763   0.92147
 Alpha virt. eigenvalues --    0.92427   0.92609   0.93018   0.93399   0.93704
 Alpha virt. eigenvalues --    0.94058   0.94741   0.94971   0.95227   0.95378
 Alpha virt. eigenvalues --    0.95975   0.96226   0.96263   0.96547   0.96626
 Alpha virt. eigenvalues --    0.97258   0.98093   0.98216   0.98389   0.98846
 Alpha virt. eigenvalues --    0.99064   0.99496   0.99908   1.00610   1.01043
 Alpha virt. eigenvalues --    1.01550   1.02722   1.02906   1.02950   1.03673
 Alpha virt. eigenvalues --    1.03924   1.04697   1.05085   1.05442   1.06213
 Alpha virt. eigenvalues --    1.06568   1.06891   1.07207   1.08397   1.08668
 Alpha virt. eigenvalues --    1.09505   1.09934   1.10619   1.11331   1.11918
 Alpha virt. eigenvalues --    1.12773   1.13601   1.13763   1.14096   1.15347
 Alpha virt. eigenvalues --    1.15924   1.16206   1.16852   1.17080   1.17813
 Alpha virt. eigenvalues --    1.18752   1.18905   1.20056   1.20164   1.20717
 Alpha virt. eigenvalues --    1.20850   1.21563   1.22009   1.22672   1.23188
 Alpha virt. eigenvalues --    1.23421   1.23934   1.24575   1.24824   1.25672
 Alpha virt. eigenvalues --    1.26031   1.26679   1.27365   1.28038   1.28570
 Alpha virt. eigenvalues --    1.28873   1.29611   1.30096   1.30834   1.31421
 Alpha virt. eigenvalues --    1.32219   1.32389   1.33549   1.33751   1.34052
 Alpha virt. eigenvalues --    1.34243   1.34632   1.35362   1.35926   1.36647
 Alpha virt. eigenvalues --    1.36881   1.37722   1.38174   1.38622   1.39280
 Alpha virt. eigenvalues --    1.39463   1.40243   1.40576   1.40919   1.41507
 Alpha virt. eigenvalues --    1.42349   1.42797   1.43066   1.44228   1.44946
 Alpha virt. eigenvalues --    1.45775   1.45920   1.46286   1.46591   1.46999
 Alpha virt. eigenvalues --    1.47261   1.47656   1.48023   1.48384   1.50321
 Alpha virt. eigenvalues --    1.50659   1.51238   1.52432   1.52765   1.52988
 Alpha virt. eigenvalues --    1.53835   1.54881   1.56006   1.57023   1.57580
 Alpha virt. eigenvalues --    1.59074   1.59913   1.60803   1.61484   1.61647
 Alpha virt. eigenvalues --    1.63375   1.63568   1.64273   1.65170   1.65318
 Alpha virt. eigenvalues --    1.65831   1.66496   1.67239   1.67492   1.67865
 Alpha virt. eigenvalues --    1.68419   1.68788   1.69228   1.70056   1.70999
 Alpha virt. eigenvalues --    1.71417   1.71593   1.71989   1.73167   1.73349
 Alpha virt. eigenvalues --    1.74811   1.75482   1.75587   1.76410   1.76947
 Alpha virt. eigenvalues --    1.77760   1.78238   1.78648   1.78969   1.79203
 Alpha virt. eigenvalues --    1.79923   1.80169   1.80875   1.81350   1.81677
 Alpha virt. eigenvalues --    1.82215   1.82405   1.83172   1.83620   1.84013
 Alpha virt. eigenvalues --    1.84689   1.84995   1.85410   1.85712   1.86160
 Alpha virt. eigenvalues --    1.86340   1.86996   1.87303   1.88045   1.88317
 Alpha virt. eigenvalues --    1.88925   1.89188   1.89956   1.90321   1.90557
 Alpha virt. eigenvalues --    1.91275   1.91641   1.91812   1.92088   1.92282
 Alpha virt. eigenvalues --    1.92526   1.92880   1.92990   1.93678   1.93780
 Alpha virt. eigenvalues --    1.94110   1.94683   1.95035   1.95288   1.96012
 Alpha virt. eigenvalues --    1.96185   1.96779   1.96918   1.97588   1.97996
 Alpha virt. eigenvalues --    1.99276   1.99424   2.00168   2.00765   2.01070
 Alpha virt. eigenvalues --    2.01870   2.02191   2.02690   2.02941   2.03331
 Alpha virt. eigenvalues --    2.03954   2.04293   2.04527   2.04965   2.05390
 Alpha virt. eigenvalues --    2.05728   2.06201   2.06467   2.06887   2.07524
 Alpha virt. eigenvalues --    2.08111   2.08328   2.08766   2.09227   2.09607
 Alpha virt. eigenvalues --    2.09730   2.09986   2.10511   2.10776   2.11202
 Alpha virt. eigenvalues --    2.11773   2.12217   2.13119   2.13781   2.14100
 Alpha virt. eigenvalues --    2.14362   2.15044   2.15212   2.15356   2.15898
 Alpha virt. eigenvalues --    2.16000   2.16489   2.17075   2.18010   2.18245
 Alpha virt. eigenvalues --    2.18585   2.18800   2.19058   2.19172   2.19427
 Alpha virt. eigenvalues --    2.19855   2.20054   2.20585   2.21732   2.21952
 Alpha virt. eigenvalues --    2.22041   2.22504   2.22939   2.23353   2.23651
 Alpha virt. eigenvalues --    2.24080   2.24412   2.25037   2.25356   2.25644
 Alpha virt. eigenvalues --    2.26047   2.26221   2.26702   2.27013   2.27401
 Alpha virt. eigenvalues --    2.27685   2.28153   2.28781   2.29081   2.30147
 Alpha virt. eigenvalues --    2.30688   2.31120   2.31583   2.32239   2.32559
 Alpha virt. eigenvalues --    2.33022   2.33163   2.33872   2.34029   2.35749
 Alpha virt. eigenvalues --    2.37492   2.37772   2.38685   2.39103   2.39737
 Alpha virt. eigenvalues --    2.39796   2.41525   2.42949   2.44005   2.44182
 Alpha virt. eigenvalues --    2.46025   2.46569   2.47129   2.47321   2.48281
 Alpha virt. eigenvalues --    2.48345   2.48469   2.48997   2.49865   2.50275
 Alpha virt. eigenvalues --    2.51638   2.51976   2.52693   2.52935   2.54798
 Alpha virt. eigenvalues --    2.58945   2.59480   2.59628   2.61223   2.61662
 Alpha virt. eigenvalues --    2.61894   2.62429   2.62766   2.63724   2.64081
 Alpha virt. eigenvalues --    2.65153   2.66768   2.67801   2.68480   2.68778
 Alpha virt. eigenvalues --    2.69833   2.71077   2.72174   2.73708   2.76526
 Alpha virt. eigenvalues --    2.77405   2.77745   2.77983   2.78365   2.79039
 Alpha virt. eigenvalues --    2.79145   2.80022   2.80497   2.80616   2.81428
 Alpha virt. eigenvalues --    2.82310   2.82456   2.82893   2.83754   2.84095
 Alpha virt. eigenvalues --    2.86128   2.88610   2.89215   2.91186   2.91662
 Alpha virt. eigenvalues --    2.93689   2.94518   2.95117   2.96064   2.96946
 Alpha virt. eigenvalues --    2.97483   3.00440   3.03464   3.04355   3.06802
 Alpha virt. eigenvalues --    3.06880   3.07835   3.09440   3.11549   3.12889
 Alpha virt. eigenvalues --    3.13110   3.13645   3.15110   3.20951   3.26743
 Alpha virt. eigenvalues --    3.31793   3.45368  12.53540
          Condensed to atoms (all electrons):
 Mulliken charges:
               1
     1  C    0.320868
     2  C    0.020642
     3  C   -0.077940
     4  C   -0.156946
     5  C   -0.192234
     6  C    0.312116
     7  C    0.034842
     8  C   -0.165160
     9  C   -0.136993
    10  C   -0.173963
    11  H    0.272555
    12  H    0.202380
    13  H    0.179130
    14  H    0.205731
    15  H    0.177370
    16  H    0.161970
    17  N   -0.566573
    18  N   -0.413174
    19  Ir   0.015559
    20  O   -0.513779
    21  O   -0.521372
    22  O   -0.566509
    23  B    0.324152
    24  B    0.459509
    25  B    0.596783
    26  O   -0.542637
    27  O   -0.500149
    28  C    0.283212
    29  C    0.288644
    30  C    0.320999
    31  C    0.290443
    32  C    0.294952
    33  C    0.293575
    34  O   -0.506297
    35  C   -0.490849
    36  H    0.155608
    37  H    0.167883
    38  H    0.139920
    39  C   -0.505997
    40  H    0.153309
    41  H    0.165163
    42  H    0.170354
    43  C   -0.499320
    44  H    0.173156
    45  H    0.151136
    46  H    0.156922
    47  C   -0.500085
    48  H    0.165512
    49  H    0.177376
    50  H    0.147256
    51  C   -0.509049
    52  H    0.173161
    53  H    0.154718
    54  H    0.162239
    55  C   -0.513342
    56  H    0.175512
    57  H    0.184120
    58  H    0.151178
    59  C   -0.510156
    60  H    0.161415
    61  H    0.193333
    62  H    0.146546
    63  C   -0.512611
    64  H    0.176632
    65  H    0.163737
    66  H    0.152600
    67  C   -0.505285
    68  H    0.204998
    69  H    0.130901
    70  H    0.158196
    71  C   -0.509803
    72  H    0.161409
    73  H    0.168174
    74  H    0.143170
    75  C   -0.502922
    76  H    0.152349
    77  H    0.155636
    78  H    0.157283
    79  C   -0.502244
    80  H    0.143195
    81  H    0.174266
    82  H    0.156220
    83  H    0.158754
    84  C    0.580034
    85  O   -0.518279
    86  C   -0.401128
    87  H    0.180308
    88  H    0.155555
    89  C   -0.447605
    90  H    0.212248
    91  H    0.263892
    92  N   -0.359012
    93  C   -0.333931
    94  H    0.159987
    95  H    0.163886
    96  H    0.174073
    97  C   -0.467744
    98  H    0.136456
    99  H    0.186544
   100  C    0.976020
   101  F   -0.314113
   102  F   -0.305354
   103  F   -0.316585
   104  H    0.176903
   105  H    0.154466
 Sum of Mulliken charges =  -0.00000
 Mulliken charges with hydrogens summed into heavy atoms:
               1
     1  C    0.320868
     2  C    0.293198
     3  C   -0.077940
     4  C    0.045434
     5  C   -0.013103
     6  C    0.312116
     7  C    0.240572
     8  C    0.011743
     9  C    0.040376
    10  C   -0.011994
    17  N   -0.566573
    18  N   -0.413174
    19  Ir   0.015559
    20  O   -0.513779
    21  O   -0.521372
    22  O   -0.566509
    23  B    0.482906
    24  B    0.459509
    25  B    0.596783
    26  O   -0.542637
    27  O   -0.500149
    28  C    0.283212
    29  C    0.288644
    30  C    0.320999
    31  C    0.290443
    32  C    0.294952
    33  C    0.293575
    34  O   -0.506297
    35  C   -0.027437
    39  C   -0.017172
    43  C   -0.018106
    47  C   -0.009941
    51  C   -0.018931
    55  C   -0.002532
    59  C   -0.008862
    63  C   -0.019643
    67  C   -0.011190
    71  C   -0.037050
    75  C   -0.037655
    79  C   -0.028564
    84  C    0.580034
    85  O   -0.518279
    86  C   -0.065265
    89  C    0.028536
    92  N   -0.359012
    93  C    0.164015
    97  C    0.009723
   100  C    0.976020
   101  F   -0.314113
   102  F   -0.305354
   103  F   -0.316585
 APT charges:
               1
     1  C    0.330111
     2  C    0.053591
     3  C   -0.255400
     4  C    0.138000
     5  C   -0.213621
     6  C    0.121181
     7  C    0.052604
     8  C   -0.040810
     9  C    0.107965
    10  C   -0.152167
    11  H    0.194971
    12  H    0.059728
    13  H    0.051922
    14  H    0.094319
    15  H    0.024167
    16  H    0.037328
    17  N   -0.165147
    18  N   -0.248941
    19  Ir  -0.549162
    20  O   -0.909243
    21  O   -1.042317
    22  O   -1.060552
    23  B    1.362783
    24  B    1.187928
    25  B    1.460700
    26  O   -1.019804
    27  O   -0.914891
    28  C    0.459166
    29  C    0.435017
    30  C    0.542980
    31  C    0.498356
    32  C    0.527169
    33  C    0.521862
    34  O   -1.017331
    35  C   -0.024097
    36  H   -0.012318
    37  H    0.002842
    38  H   -0.010339
    39  C    0.002049
    40  H   -0.015935
    41  H    0.003972
    42  H    0.000645
    43  C    0.002262
    44  H    0.008626
    45  H   -0.014696
    46  H   -0.009279
    47  C   -0.027760
    48  H    0.003709
    49  H    0.026780
    50  H   -0.025572
    51  C   -0.016302
    52  H    0.005293
    53  H   -0.015998
    54  H    0.003451
    55  C   -0.047444
    56  H    0.011369
    57  H    0.014018
    58  H   -0.024193
    59  C   -0.038815
    60  H   -0.004983
    61  H    0.030201
    62  H   -0.023000
    63  C   -0.009643
    64  H    0.003983
    65  H   -0.002687
    66  H   -0.015757
    67  C   -0.044570
    68  H    0.045004
    69  H   -0.029005
    70  H   -0.010487
    71  C    0.001442
    72  H   -0.008000
    73  H   -0.005192
    74  H   -0.021038
    75  C   -0.047242
    76  H   -0.030532
    77  H   -0.003551
    78  H    0.000608
    79  C   -0.009037
    80  H   -0.024169
    81  H    0.012350
    82  H   -0.008200
    83  H   -0.044290
    84  C    0.798873
    85  O   -0.674268
    86  C    0.014960
    87  H   -0.019739
    88  H   -0.026721
    89  C   -0.121040
    90  H   -0.018989
    91  H    0.089838
    92  N   -0.677992
    93  C    0.278299
    94  H   -0.014991
    95  H   -0.025185
    96  H    0.021310
    97  C    0.067442
    98  H   -0.019986
    99  H    0.015429
   100  C    1.743283
   101  F   -0.581566
   102  F   -0.494233
   103  F   -0.581055
   104  H    0.027934
   105  H   -0.028540
 Sum of APT charges =  -0.00000
 APT charges with hydrogens summed into heavy atoms:
               1
     1  C    0.330111
     2  C    0.248562
     3  C   -0.255400
     4  C    0.197728
     5  C   -0.161699
     6  C    0.121181
     7  C    0.146923
     8  C   -0.012876
     9  C    0.132132
    10  C   -0.114839
    17  N   -0.165147
    18  N   -0.248941
    19  Ir  -0.549162
    20  O   -0.909243
    21  O   -1.042317
    22  O   -1.060552
    23  B    1.318494
    24  B    1.187928
    25  B    1.460700
    26  O   -1.019804
    27  O   -0.914891
    28  C    0.459166
    29  C    0.435017
    30  C    0.542980
    31  C    0.498356
    32  C    0.527169
    33  C    0.521862
    34  O   -1.017331
    35  C   -0.043913
    39  C   -0.009269
    43  C   -0.013087
    47  C   -0.022843
    51  C   -0.023556
    55  C   -0.046250
    59  C   -0.036597
    63  C   -0.024104
    67  C   -0.039058
    71  C   -0.032789
    75  C   -0.080717
    79  C   -0.029056
    84  C    0.798873
    85  O   -0.674268
    86  C   -0.031499
    89  C   -0.050190
    92  N   -0.677992
    93  C    0.259433
    97  C    0.034345
   100  C    1.743283
   101  F   -0.581566
   102  F   -0.494233
   103  F   -0.581055
 Electronic spatial extent (au):  <R**2>=          26197.4785
 Charge=             -0.0000 electrons
 Dipole moment (field-independent basis, Debye):
    X=             -0.5815    Y=              3.9615    Z=              3.6757  Tot=              5.4353
 Quadrupole moment (field-independent basis, Debye-Ang):
   XX=           -297.3830   YY=           -294.7052   ZZ=           -316.6347
   XY=             -3.8128   XZ=              0.3862   YZ=              6.5377
 Traceless Quadrupole moment (field-independent basis, Debye-Ang):
   XX=              5.5247   YY=              8.2024   ZZ=            -13.7271
   XY=             -3.8128   XZ=              0.3862   YZ=              6.5377
 Octapole moment (field-independent basis, Debye-Ang**2):
  XXX=             34.2555  YYY=            134.3958  ZZZ=            -17.2221  XYY=             -8.5560
  XXY=             45.8116  XXZ=            -41.4065  XZZ=            -11.2321  YZZ=             -9.0625
  YYZ=            -11.4653  XYZ=            -51.0600
 Hexadecapole moment (field-independent basis, Debye-Ang**3):
 XXXX=         -14863.5316 YYYY=         -10252.0243 ZZZZ=          -7517.2476 XXXY=             22.4940
 XXXZ=           -129.9629 YYYX=            140.4310 YYYZ=            -91.7450 ZZZX=           -106.8795
 ZZZY=            -96.9211 XXYY=          -4403.3757 XXZZ=          -3780.8097 YYZZ=          -3203.0441
 XXYZ=             56.1204 YYXZ=           -184.3554 ZZXY=             30.5823
 N-N= 8.729552964123D+03 E-N=-2.326500511908D+04  KE= 2.410329612250D+03
  Exact polarizability:     503.342       2.780     517.447     -23.382       5.000     393.669
 Approx polarizability:     709.980      27.295     770.403     -71.809       0.808     602.370
   1 Symmetry operations used in ECPInt.
 ECPInt:  NShTT=   50086 NPrTT=  307226 LenC2=   39443 LenP2D=  123283.
 LDataN:  DoStor=T MaxTD1= 8 Len=  415
 Calling FoFJK, ICntrl=    100127 FMM=F ISym2X=0 I1Cent= 0 IOpClX= 0 NMat=1 NMatS=1 NMatT=0.
 Defaulting to unpruned grid for atomic number  77.
 Defaulting to unpruned grid for atomic number  77.
 Defaulting to unpruned grid for atomic number  77.
 Defaulting to unpruned grid for atomic number  77.
 Defaulting to unpruned grid for atomic number  77.
 Defaulting to unpruned grid for atomic number  77.
 Defaulting to unpruned grid for atomic number  77.
 Defaulting to unpruned grid for atomic number  77.
 Defaulting to unpruned grid for atomic number  77.
 Defaulting to unpruned grid for atomic number  77.
 Defaulting to unpruned grid for atomic number  77.
 Defaulting to unpruned grid for atomic number  77.
 Defaulting to unpruned grid for atomic number  77.
 Defaulting to unpruned grid for atomic number  77.
 Defaulting to unpruned grid for atomic number  77.
 Defaulting to unpruned grid for atomic number  77.
 Full mass-weighted force constant matrix:
 Low frequencies --- -156.4403   -7.5729   -3.5867   -2.8664   -0.0004   -0.0003
 Low frequencies ---    0.0005   25.2085   32.7117
 ******    1 imaginary frequencies (negative Signs) ****** 
 Diagonal vibrational polarizability:
       85.8897813     100.9271214      96.6747655
 Harmonic frequencies (cm**-1), IR intensities (KM/Mole), Raman scattering
 activities (A**4/AMU), depolarization ratios for plane and unpolarized
 incident light, reduced masses (AMU), force constants (mDyne/A),
 and normal coordinates:
                      1                      2                      3
                      A                      A                      A
 Frequencies --   -156.4393                25.1975                32.6848
 Red. masses --      5.3745                 5.2587                 4.1918
 Frc consts  --      0.0775                 0.0020                 0.0026
 IR Inten    --     21.7397                 0.6327                 0.1991
  Atom AN      X      Y      Z        X      Y      Z        X      Y      Z
     1   6    -0.00  -0.03  -0.01    -0.01  -0.01   0.02     0.03  -0.00   0.01
     2   6    -0.00  -0.02   0.02    -0.02  -0.02  -0.02    -0.00   0.01  -0.01
     3   6    -0.01  -0.01   0.01    -0.02  -0.03  -0.03     0.01   0.02   0.01
     4   6    -0.01  -0.01  -0.01    -0.03  -0.03  -0.02     0.04   0.02   0.03
     5   6    -0.00  -0.01  -0.02    -0.03  -0.03   0.00     0.05   0.01   0.03
     6   6     0.00  -0.04  -0.02     0.02  -0.01   0.08     0.05  -0.01   0.02
     7   6    -0.02  -0.05  -0.05     0.03   0.01   0.10     0.00  -0.03  -0.06
     8   6     0.01  -0.05  -0.01     0.09   0.01   0.22     0.05  -0.02   0.00
     9   6     0.03  -0.04   0.01     0.12   0.01   0.28     0.10  -0.01   0.08
    10   6     0.03  -0.03   0.01     0.08  -0.00   0.20     0.10  -0.00   0.09
    11   1    -0.01  -0.02   0.03    -0.02  -0.01  -0.04    -0.02   0.01  -0.02
    12   1    -0.01   0.00  -0.01    -0.04  -0.04  -0.03     0.05   0.02   0.04
    13   1    -0.01  -0.01  -0.03    -0.04  -0.03   0.01     0.06   0.01   0.04
    14   1    -0.03  -0.06  -0.08    -0.00   0.01   0.05    -0.03  -0.04  -0.12
    15   1     0.05  -0.04   0.03     0.17   0.02   0.38     0.14  -0.00   0.14
    16   1     0.05  -0.03   0.04     0.11   0.00   0.25     0.14   0.01   0.15
    17   7     0.01  -0.03   0.01    -0.01  -0.01  -0.00     0.01  -0.00  -0.01
    18   7    -0.03  -0.06  -0.06    -0.01  -0.00   0.03     0.00  -0.02  -0.05
    19  77    -0.04   0.00  -0.03    -0.01   0.00  -0.01    -0.00  -0.02  -0.01
    20   8     0.01   0.02   0.02     0.02   0.06  -0.03    -0.05  -0.02  -0.00
    21   8    -0.01  -0.02  -0.00    -0.01  -0.01  -0.03     0.01   0.06   0.05
    22   8     0.09  -0.02   0.05    -0.00  -0.01   0.00    -0.01  -0.02   0.01
    23   5    -0.02   0.00   0.05    -0.01  -0.01  -0.04    -0.01   0.01  -0.02
    24   5     0.04   0.04  -0.00     0.00   0.04  -0.01    -0.02  -0.03  -0.01
    25   5     0.25  -0.07   0.23    -0.00  -0.01  -0.00    -0.01  -0.03   0.00
    26   8     0.12  -0.02   0.11     0.01  -0.02   0.02    -0.02  -0.03  -0.00
    27   8     0.03   0.03  -0.01    -0.01   0.05   0.02     0.01  -0.04  -0.02
    28   6     0.01   0.01  -0.01    -0.00   0.08   0.02     0.00  -0.04  -0.02
    29   6     0.00   0.01   0.01     0.01   0.09  -0.02    -0.04  -0.04  -0.01
    30   6     0.02  -0.03   0.00     0.01  -0.01   0.02    -0.02  -0.02   0.00
    31   6     0.04  -0.07   0.03     0.01  -0.01   0.03    -0.02  -0.03  -0.00
    32   6    -0.01  -0.01  -0.00    -0.01  -0.02  -0.05     0.00   0.10   0.06
    33   6    -0.01  -0.01   0.01    -0.00  -0.02  -0.07    -0.04   0.08  -0.03
    34   8    -0.02   0.00   0.04    -0.00  -0.02  -0.06    -0.03   0.00  -0.08
    35   6    -0.00   0.00   0.01     0.01   0.11  -0.03    -0.05  -0.08   0.00
    36   1    -0.01  -0.01   0.00     0.01   0.15  -0.02    -0.04  -0.10  -0.00
    37   1    -0.00   0.00   0.02     0.02   0.11  -0.07    -0.08  -0.08   0.02
    38   1     0.00   0.01  -0.00     0.01   0.10  -0.03    -0.05  -0.09  -0.00
    39   6    -0.00   0.00   0.02     0.01   0.10  -0.02    -0.05  -0.02  -0.00
    40   1    -0.00  -0.01   0.01     0.01   0.13  -0.01    -0.04  -0.03  -0.01
    41   1     0.00   0.00   0.02     0.01   0.09  -0.02    -0.04   0.01  -0.00
    42   1    -0.00  -0.00   0.02     0.02   0.11  -0.05    -0.07  -0.02   0.00
    43   6    -0.00   0.01  -0.02    -0.01   0.11   0.04     0.01  -0.07  -0.03
    44   1     0.00   0.01  -0.03    -0.01   0.10   0.07     0.04  -0.07  -0.04
    45   1    -0.01   0.00  -0.02    -0.00   0.13   0.04     0.00  -0.07  -0.03
    46   1    -0.00   0.01  -0.03    -0.00   0.11   0.03     0.00  -0.09  -0.04
    47   6     0.01   0.01   0.01    -0.01   0.07   0.03     0.02  -0.01  -0.01
    48   1     0.01   0.01   0.00    -0.01   0.07   0.05     0.04  -0.01  -0.02
    49   1     0.01   0.01   0.01    -0.01   0.06   0.02     0.01   0.01  -0.00
    50   1    -0.00   0.01   0.01    -0.00   0.09   0.03     0.01  -0.01  -0.01
    51   6    -0.00  -0.01  -0.01    -0.01  -0.01  -0.04    -0.01   0.20   0.11
    52   1     0.00  -0.01  -0.01    -0.02  -0.01  -0.03     0.04   0.20   0.17
    53   1    -0.00  -0.01  -0.01    -0.01  -0.03  -0.06    -0.03   0.24   0.12
    54   1     0.00  -0.02  -0.01    -0.00   0.01  -0.05    -0.06   0.23   0.07
    55   6    -0.01   0.00  -0.01    -0.02  -0.04  -0.04     0.06   0.04   0.11
    56   1    -0.00  -0.00  -0.02    -0.02  -0.04  -0.02     0.08   0.04   0.17
    57   1    -0.02   0.00  -0.00    -0.03  -0.06  -0.04     0.08  -0.02   0.08
    58   1    -0.01   0.01  -0.01    -0.02  -0.05  -0.05     0.06   0.05   0.14
    59   6     0.02  -0.01   0.01     0.02  -0.00  -0.07    -0.11   0.16  -0.08
    60   1     0.02  -0.01   0.02     0.03  -0.00  -0.09    -0.14   0.14  -0.14
    61   1     0.03  -0.01   0.02     0.02   0.02  -0.06    -0.12   0.17  -0.08
    62   1     0.02  -0.01   0.00     0.02  -0.01  -0.08    -0.13   0.21  -0.04
    63   6    -0.02  -0.00  -0.00    -0.00  -0.04  -0.08    -0.04   0.07  -0.03
    64   1    -0.03   0.00  -0.00    -0.02  -0.06  -0.08     0.01   0.01  -0.01
    65   1    -0.02  -0.00   0.01     0.01  -0.04  -0.10    -0.07   0.06  -0.10
    66   1    -0.01  -0.01  -0.02    -0.00  -0.05  -0.09    -0.04   0.13   0.01
    67   6     0.03  -0.14   0.04     0.00   0.01   0.04    -0.02  -0.04  -0.01
    68   1     0.04  -0.15   0.06    -0.00   0.02   0.03    -0.02  -0.05  -0.00
    69   1    -0.00  -0.15   0.02     0.00   0.02   0.06    -0.01  -0.04  -0.02
    70   1     0.04  -0.14   0.05     0.01   0.00   0.05    -0.02  -0.03  -0.01
    71   6     0.01  -0.02  -0.02     0.03  -0.02   0.05    -0.03  -0.03  -0.01
    72   1     0.01   0.04  -0.02     0.04  -0.04   0.04    -0.04  -0.03  -0.00
    73   1     0.01  -0.03  -0.01     0.03  -0.02   0.05    -0.03  -0.04  -0.01
    74   1    -0.03  -0.04  -0.06     0.03  -0.02   0.06    -0.04  -0.03  -0.01
    75   6     0.01   0.03  -0.01     0.02  -0.03   0.02    -0.03  -0.01   0.01
    76   1    -0.03   0.03  -0.03     0.02  -0.03   0.03    -0.04  -0.01   0.00
    77   1     0.01   0.06  -0.01     0.01  -0.03   0.01    -0.02  -0.01   0.01
    78   1     0.03   0.05  -0.00     0.02  -0.03   0.01    -0.03  -0.01   0.01
    79   6    -0.01  -0.05  -0.01     0.00   0.00   0.03    -0.02  -0.03   0.00
    80   1    -0.04  -0.05  -0.01     0.02   0.01   0.04    -0.04  -0.03  -0.00
    81   1    -0.01  -0.07   0.01    -0.02   0.02   0.03    -0.01  -0.04  -0.00
    82   1    -0.02  -0.02  -0.02    -0.00  -0.02   0.01    -0.02  -0.01   0.01
    83   1    -0.05   0.24  -0.16    -0.02   0.00  -0.02    -0.00  -0.05   0.00
    84   6    -0.02   0.08   0.02     0.01  -0.03  -0.01     0.02   0.01  -0.00
    85   8    -0.04   0.10   0.03     0.02  -0.04  -0.01     0.04  -0.01  -0.02
    86   6    -0.03   0.03   0.02     0.01  -0.01  -0.01     0.03   0.03   0.02
    87   1    -0.02   0.02   0.01     0.01  -0.01  -0.01     0.01   0.04   0.03
    88   1    -0.01   0.03   0.02     0.01  -0.00  -0.01     0.03   0.04   0.03
    89   6     0.05   0.24   0.02    -0.00  -0.04  -0.02    -0.01  -0.02  -0.01
    90   1     0.05  -0.20   0.36    -0.00  -0.04  -0.01    -0.02  -0.04   0.01
    91   1    -0.10   0.12  -0.43     0.00  -0.04  -0.02     0.00  -0.04  -0.03
    92   7     0.03   0.10   0.01    -0.00  -0.03  -0.02    -0.00  -0.00   0.00
    93   6     0.08   0.06   0.01    -0.01  -0.02  -0.03    -0.02   0.01   0.02
    94   1     0.09   0.06   0.01    -0.01  -0.03  -0.03    -0.02   0.02   0.02
    95   1     0.07   0.02   0.01    -0.01  -0.02  -0.02    -0.02   0.02   0.02
    96   1     0.11   0.08   0.02    -0.01  -0.03  -0.03    -0.03   0.00   0.02
    97   6    -0.05   0.03   0.02     0.03  -0.00  -0.02     0.06   0.04   0.02
    98   1    -0.05   0.03   0.02     0.06   0.01  -0.05     0.09   0.04  -0.00
    99   1    -0.06   0.03   0.02     0.01  -0.02  -0.04     0.05   0.03   0.00
   100   6    -0.01  -0.01   0.00    -0.02  -0.03  -0.04     0.00   0.02   0.01
   101   9    -0.00  -0.00  -0.00    -0.02  -0.04  -0.06    -0.00   0.04   0.02
   102   9    -0.01  -0.01   0.01    -0.01  -0.03  -0.04    -0.01   0.02   0.00
   103   9    -0.01  -0.01   0.00    -0.04  -0.04  -0.05     0.02   0.02   0.01
   104   1     0.02  -0.06  -0.01     0.12   0.02   0.28     0.05  -0.03  -0.01
   105   1    -0.05   0.01   0.02     0.04   0.00   0.01     0.07   0.06   0.04
                      4                      5                      6
                      A                      A                      A
 Frequencies --     36.4525                37.0823                48.3489
 Red. masses --      6.9301                 4.6527                 4.0542
 Frc consts  --      0.0054                 0.0038                 0.0056
 IR Inten    --      0.1339                 0.2677                 0.0661
  Atom AN      X      Y      Z        X      Y      Z        X      Y      Z
     1   6     0.03   0.00  -0.02    -0.00   0.03  -0.02     0.01  -0.01   0.04
     2   6     0.02   0.00  -0.03    -0.01   0.04  -0.01    -0.01  -0.01   0.00
     3   6     0.05  -0.00   0.01    -0.01   0.04  -0.02     0.01  -0.01   0.03
     4   6     0.06  -0.01   0.03    -0.01   0.04  -0.03     0.03  -0.02   0.07
     5   6     0.05  -0.00   0.01    -0.01   0.04  -0.03     0.03  -0.01   0.07
     6   6     0.03   0.00  -0.02     0.01   0.03  -0.00    -0.01  -0.00   0.02
     7   6     0.03   0.00  -0.02    -0.00   0.02  -0.03    -0.05   0.00  -0.05
     8   6     0.04   0.00   0.01     0.05   0.02   0.04    -0.07  -0.00  -0.06
     9   6     0.05   0.01   0.02     0.08   0.03   0.08    -0.05  -0.00  -0.03
    10   6     0.04   0.01   0.01     0.06   0.04   0.06    -0.01  -0.01   0.02
    11   1     0.01   0.01  -0.05    -0.01   0.03  -0.00    -0.02  -0.00  -0.02
    12   1     0.08  -0.01   0.06    -0.02   0.05  -0.03     0.05  -0.02   0.09
    13   1     0.06  -0.00   0.03    -0.02   0.04  -0.04     0.05  -0.02   0.10
    14   1     0.02   0.00  -0.03    -0.02   0.01  -0.06    -0.06   0.01  -0.07
    15   1     0.06   0.01   0.04     0.12   0.04   0.14    -0.06  -0.01  -0.03
    16   1     0.04   0.01   0.01     0.08   0.05   0.10    -0.00  -0.01   0.05
    17   7     0.01   0.01  -0.04    -0.01   0.03  -0.01    -0.00  -0.00   0.01
    18   7     0.02   0.00  -0.03    -0.02   0.02  -0.05    -0.02  -0.00  -0.01
    19  77     0.00   0.01  -0.04    -0.01   0.03  -0.01    -0.01   0.01   0.01
    20   8    -0.04   0.03  -0.03    -0.02  -0.05  -0.00     0.07  -0.04  -0.00
    21   8    -0.03  -0.02   0.02    -0.02   0.00  -0.04    -0.01   0.02  -0.03
    22   8     0.01  -0.00  -0.03     0.03   0.00   0.04    -0.02  -0.00  -0.03
    23   5    -0.00  -0.01  -0.00    -0.01   0.03  -0.00    -0.01   0.02  -0.02
    24   5    -0.03   0.02  -0.03    -0.02  -0.02  -0.03    -0.01  -0.00   0.00
    25   5     0.01   0.01  -0.03     0.01   0.00   0.02     0.01  -0.00   0.00
    26   8     0.01   0.01  -0.04     0.03  -0.01   0.04     0.07  -0.01   0.05
    27   8    -0.06   0.03  -0.02    -0.02  -0.04  -0.06    -0.09   0.02   0.01
    28   6    -0.10   0.05  -0.01    -0.02  -0.08  -0.06    -0.06  -0.02  -0.00
    29   6    -0.08   0.05  -0.03    -0.01  -0.09  -0.02     0.05  -0.03  -0.00
    30   6     0.03   0.00  -0.04     0.06   0.00   0.09    -0.01  -0.00  -0.02
    31   6     0.03   0.02  -0.03     0.05   0.00   0.07     0.04  -0.00   0.07
    32   6    -0.02  -0.04   0.06    -0.01   0.00  -0.04    -0.01   0.02  -0.03
    33   6     0.01  -0.04   0.06    -0.01   0.01   0.03    -0.01   0.02  -0.03
    34   8     0.03  -0.02   0.02    -0.01   0.04   0.04    -0.02   0.02  -0.02
    35   6    -0.07   0.08  -0.05    -0.01  -0.10   0.00     0.10   0.06   0.02
    36   1    -0.09   0.11  -0.04    -0.01  -0.14  -0.01     0.10   0.08   0.03
    37   1    -0.05   0.08  -0.07    -0.01  -0.11   0.04     0.17   0.05   0.01
    38   1    -0.08   0.09  -0.05    -0.01  -0.08  -0.00     0.07   0.10   0.04
    39   6    -0.09   0.04  -0.01    -0.01  -0.12  -0.01     0.09  -0.11  -0.02
    40   1    -0.12   0.06  -0.00    -0.00  -0.15  -0.03     0.08  -0.11  -0.02
    41   1    -0.09   0.01   0.02    -0.01  -0.11  -0.03     0.07  -0.17  -0.04
    42   1    -0.07   0.04  -0.02    -0.01  -0.13   0.02     0.17  -0.11  -0.01
    43   6    -0.15   0.08  -0.03    -0.01  -0.10  -0.08    -0.09   0.05   0.02
    44   1    -0.17   0.08  -0.03    -0.01  -0.09  -0.09    -0.16   0.05   0.02
    45   1    -0.17   0.07  -0.02    -0.01  -0.11  -0.08    -0.06   0.03   0.02
    46   1    -0.13   0.11  -0.04    -0.01  -0.10  -0.07    -0.07   0.11   0.05
    47   6    -0.12   0.01   0.05    -0.02  -0.08  -0.09    -0.11  -0.10  -0.04
[...]
 0.00000218,-0.00000455,-0.00000966,-0.00000512,0.,0.00000228,0.0000013
 7,0.00000197,0.00000326,0.00000159,-0.00000085,-0.00000456,-0.00000203
 ,0.00000105,-0.00000675,0.00000136,-0.00000064,0.00000343,-0.00000116,
 -0.00000154,0.00000130,0.00000166,0.00001604,-0.00005064,-0.00001215,0
 .00001798,-0.00003775,0.00000360,-0.00002953,0.00003015,-0.00006220,-0
 .00000005,-0.00000380,0.00001426,-0.00000281,-0.00000016,-0.00000181,-
 0.00000267,0.00000483,0.00000057,0.00000310,0.00007361,-0.00005526,-0.
 00000638,-0.00001557,0.00000886,-0.00002944,-0.00001074,0.00000392,-0.
 00003839,0.00003240,-0.00002234,0.00000958,0.00000972,0.00000655,0.000
 00146,-0.00000238,-0.00000152,-0.00000655,0.00000181,-0.00000172,0.000
 00251,-0.00000109,0.00000207,-0.00000256,-0.00000233,0.00000104,0.0000
 0075,-0.00000388,-0.00000275,0.00000028,0.00000167,-0.00000158,0.00003
 854,0.00003096,-0.00001739,-0.00001949,-0.00000751,-0.00000163,-0.0000
 0848,-0.00000803,0.00000417,-0.00001267,-0.00000990,0.00002004,0.12439
 334,0.18028306,-0.00082220,0.00004691,-0.00131603,-0.00000188,0.000009
 48,-0.00002200,-0.00000409,0.00005260,-0.00002909,-0.00005003,-0.00005
 134,0.00001542,0.00012978,0.00008046,0.00000160,-0.00001534,-0.0006032
 3,-0.00006593,-0.00191989,-0.00231180,0.00228481,0.08610020,0.07788933
 ,-0.09130773,0.00739470,0.01040219,-0.00246737,0.00502131,-0.00128366,
 0.00488681,0.00000576,-0.00000543,0.00000594,-0.00000728,0.00000468,-0
 .00001889,0.00001107,-0.00000642,0.00007210,-0.00127730,-0.00005455,-0
 .00222168,-0.00216341,-0.00031175,-0.00257602,0.00038277,0.00055399,-0
 .00003048,0.00020384,-0.00010136,0.00008303,0.00276196,-0.00036331,0.0
 0610417,-0.00021462,0.00026725,-0.00017746,-0.00002867,-0.00002355,-0.
 00005951,-0.00008154,0.00000994,-0.00002800,0.00000487,0.00005017,-0.0
 0004038,0.00010787,-0.00005951,0.00001232,-0.00001202,-0.00004738,0.00
 006845,0.00003224,-0.00025306,0.00011481,-0.00003123,0.00008672,0.0000
 1451,-0.00000920,0.00001093,-0.00003166,0.00001145,-0.00000262,0.00001
 579,0.00001310,-0.00000601,0.00001526,0.00000159,-0.00002747,-0.000006
 53,0.00000829,-0.00003618,0.00002179,0.00002455,0.00002874,-0.00001549
 ,0.00011196,0.00003242,0.00010382,-0.00017624,0.00006875,-0.00003242,0
 .00000102,0.00000613,-0.00000328,0.00000031,0.00000208,-0.00000278,0.0
 0000410,-0.00000058,0.00000450,-0.00000358,-0.00000526,-0.00000075,-0.
 00000060,0.00000666,0.00000099,-0.00000259,-0.00000171,-0.00000125,-0.
 00000370,0.00000461,0.00000024,0.00000410,-0.00000502,-0.00000363,0.00
 000327,-0.00000065,-0.00000251,0.00000048,-0.00000102,0.00000112,-0.00
 000108,0.00000103,-0.00000298,-0.00000327,0.00000069,0.00000180,-0.000
 00099,0.00000063,-0.00000117,-0.00000038,-0.00000187,0.00000062,0.0000
 0098,0.00000065,0.00000240,-0.00000116,0.00000149,-0.00000325,-0.00000
 289,0.00000073,0.00000114,0.00000068,-0.00000432,-0.00000368,-0.000006
 07,0.00000191,0.00000093,0.00000357,0.00000461,-0.00000618,-0.00000578
 ,-0.00001439,0.00000458,0.00000227,-0.00000469,-0.00000216,0.00000141,
 0.00000144,-0.00000367,-0.00000497,0.00000214,0.00000199,-0.00001987,0
 .00004838,-0.00003627,0.00000010,0.00000667,0.00000432,0.00001265,-0.0
 0001151,0.00000456,-0.00000624,-0.00000607,-0.00000652,-0.00001342,0.0
 0002659,-0.00001416,0.00000727,-0.00001772,-0.00000847,0.00000131,-0.0
 0000705,0.00002412,-0.00000744,-0.00000194,0.,-0.00000091,0.00000544,-
 0.00000203,0.00000150,-0.00000057,-0.00000041,-0.00000216,0.00000269,-
 0.00000358,-0.00000091,-0.00000089,0.00000216,-0.00000105,0.00000412,-
 0.00000274,-0.00000054,-0.00000178,-0.00000152,-0.00000088,-0.00000090
 ,0.00000159,-0.00000017,0.00000367,-0.00000004,-0.00000131,0.00000219,
 0.00000256,-0.00000040,0.00000343,0.00000043,-0.00000066,-0.00000165,0
 .00000008,-0.00000029,-0.00000115,-0.00000293,0.00000167,0.00000347,0.
 00000030,-0.00000069,0.00000326,-0.00000069,0.,-0.00000070,-0.00000040
 ,0.00000035,-0.00000082,-0.00000071,-0.00000306,0.00004048,0.00001400,
 0.00001666,0.00000320,-0.00001533,-0.00000085,0.00000177,-0.00003052,0
 .00000141,-0.00000236,-0.00000228,0.00000100,0.00000220,0.00000264,0.0
 0000241,0.00000448,-0.00000629,0.00004821,0.00005541,-0.00000403,0.000
 00728,-0.00001242,0.00001632,-0.00000523,-0.00001581,0.00001344,-0.000
 02763,-0.00002368,0.00001544,-0.00001329,-0.00002006,0.00001784,-0.000
 00023,-0.00000223,-0.00001217,0.00000262,-0.00000015,-0.00000222,-0.00
 000182,-0.00000019,0.00000051,-0.00000433,0.00000158,-0.00000757,-0.00
 000283,-0.00000501,0.00000225,-0.00000403,0.00000068,-0.00000247,-0.00
 001061,-0.00005093,0.00007663,0.00002971,0.00001732,-0.00000689,-0.000
 00122,0.00001672,-0.00001100,0.00000146,0.00000403,-0.00001482,-0.0955
 0703,-0.08411535,0.08663965,-0.00006576,-0.00001759,0.00014838,0.00001
 946,-0.00000912,0.00003481,0.00002121,0.00008779,0.00000077,-0.0001492
 4,-0.00005860,0.00003773,0.00007087,0.00006661,-0.00011605,0.00009815,
 0.00002543,0.00004461,0.00001855,-0.00000500,-0.00000093,-0.00000505,0
 .00001905,0.00000279,0.00002714,0.00005611,-0.00003152,-0.00004842,-0.
 00003223,-0.00003567,0.00001002,-0.00000696,0.00000668,-0.00000197,0.0
 0002873,-0.00008351,-0.00004716,-0.00000737,0.00003730,0.00000475,-0.0
 0000615,0.00000261,-0.00000127,-0.00000775,0.00000489,-0.00001319,0.00
 003621,0.00005302,-0.00000208,-0.00005713,-0.00005625,0.00000432,-0.00
 001160,-0.00000549,-0.00002647,0.00004098,-0.00006411,-0.00001920,0.00
 000871,-0.00012397,-0.00011445,0.00002995,-0.00002415,-0.00001530,0.00
 013517,-0.00003616,0.00017461,-0.00002876,-0.00000548,0.00002944,-0.00
 005476,0.00016769,0.00011464,-0.00020948,0.00012595,-0.00006151,0.0001
 4303,-0.00000854,-0.00001522,0.00005100,-0.00010317,0.00001704,-0.0000
 0795,0.00004742,-0.00000878,-0.00001758,0.00004359,0.00001492,-0.00007
 884,-0.00001142,0.00000412,-0.00006767,0.00002358,0.00004439,0.0000104
 9,-0.00000208,0.00005447,0.00000122,0.00002769,-0.00011376,-0.00001794
 ,-0.00000783,0.00000683,0.00000387,-0.00000365,-0.00000026,0.00000395,
 -0.00000933,-0.00000093,-0.00000154,0.00000559,-0.00000202,-0.00000245
 ,0.00000430,0.00000071,0.00000188,-0.00000435,-0.00000127,0.00000292,-
 0.00000640,-0.00000014,-0.00000060,0.00000187,-0.00000080,-0.00000327,
 0.00000220,0.00000016,0.00000284,-0.00000515,0.00000080,0.00000144,0.0
 0000321,-0.00000168,0.00000047,-0.00000709,-0.00000080,-0.00000182,0.0
 0000448,-0.00000258,0.00000103,-0.00000635,0.00000110,-0.00000048,0.00
 000324,0.00000365,-0.00000086,0.00000309,-0.00000434,0.00000140,-0.000
 00650,-0.00000391,0.00000170,0.00000127,0.00000127,0.00000310,-0.00000
 069,-0.00000502,-0.00000165,-0.00000069,0.00000226,-0.00000070,-0.0000
 0005,-0.00000664,-0.00000160,0.00000255,0.00000305,0.00000107,-0.00000
 045,0.00000253,0.00000005,-0.00000424,-0.00000685,-0.00000080,0.000002
 45,-0.00000441,-0.00000345,-0.00000438,0.00000447,0.00000263,0.0000021
 3,0.00000345,0.00000040,0.00000431,-0.00000767,0.00000059,-0.00000423,
 -0.00000580,-0.00000211,-0.00000246,0.00000267,0.00000027,0.00000002,0
 .00000357,-0.00000067,0.00000132,-0.00000676,0.00000071,-0.00000130,-0
 .00000138,0.00000825,-0.00000618,0.00000173,-0.00000286,0.00000512,-0.
 00000366,0.00000919,-0.00000522,-0.00000110,-0.00000331,0.00000121,-0.
 00000233,0.00000482,-0.00000047,0.00000172,-0.00000348,-0.00000099,-0.
 00000342,-0.00000199,0.00000196,-0.00000014,0.00000782,-0.00000128,-0.
 00000146,0.00001143,0.00001297,-0.00000493,0.00001398,-0.00000178,-0.0
 0000198,-0.00001066,0.00000299,0.00000361,-0.00000515,-0.00001516,-0.0
 0000461,0.00000642,-0.00000035,-0.00000221,0.00000894,-0.00000189,-0.0
 0000055,-0.00000300,-0.00000026,0.00000507,-0.00000300,-0.00000101,-0.
 00000539,0.00000111,0.00001684,0.00032574,-0.00123343,0.00009339,-0.00
 028434,0.00189261,0.00035838,-0.00366257,-0.00133207,0.00032962,0.0003
 0567,0.00024757,0.00025066,0.00006025,0.00029863,-0.00023173,0.0001464
 4,0.00012999,-0.00007128,-0.00006710,0.00003605,0.00000418,0.00005626,
 -0.00001310,-0.00001731,-0.00043979,0.00061792,0.00012390,-0.00018871,
 -0.00013637,0.00002388,0.00004265,0.00004627,-0.00003035,0.00000530,-0
 .00002039,-0.00000559,0.00000255,0.00004804,0.00001412,-0.29828091,0.0
 2937816,0.05749708,-0.01433247,0.00203207,0.00527981,-0.00499112,0.000
 95831,-0.00017975,-0.00034619,-0.00002313,0.00007864,0.00017895,-0.000
 01780,0.00003535,0.00006703,-0.00002277,-0.00002733,0.00007638,0.00001
 557,-0.00006064,-0.00000524,-0.00000254,0.00000605,0.32135829,-0.00000
 835,-0.00006830,-0.00002359,0.00001710,0.00001889,-0.00004330,-0.00001
 311,0.00000189,0.00000467,-0.00004409,-0.00004254,-0.00002567,0.000006
 23,0.00005183,-0.00004084,0.00003999,-0.00003582,0.00000247,-0.0000067
 6,-0.00000242,0.00001681,0.00000441,0.00000816,-0.00000275,0.00000289,
 0.00003841,-0.00001705,-0.00001815,-0.00001178,-0.00002563,0.00000513,
 -0.00001275,-0.00001916,-0.00000046,0.00001341,0.00003434,-0.00000592,
 0.00001278,0.00003308,0.00000250,-0.00000871,-0.00000099,0.00000006,0.
 00000282,0.00000372,-0.00001351,0.00002936,0.00005237,0.00006316,0.000
 01304,0.00000043,-0.00001862,0.00001253,-0.00000713,-0.00000741,-0.000
 08011,0.00001879,0.00000066,0.00000284,0.00005683,0.00004195,-0.000003
 72,0.00000400,0.00000623,-0.00003793,0.00003991,-0.00006486,-0.0000019
 4,0.00003166,0.00001630,0.00002236,-0.00006000,-0.00008720,0.00010942,
 -0.00021867,0.00004678,-0.00009389,0.00004620,-0.00000549,-0.00001207,
 0.00003560,-0.00000290,0.00000232,-0.00001279,0.00000884,0.00000285,-0
 .00001142,-0.00000217,0.00002562,0.00000516,0.00000748,0.00003739,-0.0
 0001426,-0.00001304,-0.00000751,-0.00000163,-0.00000917,-0.00000208,-0
 .00000881,0.00003894,0.00002966,-0.00000830,0.00000094,0.00000004,0.00
 000464,-0.00000179,0.00000062,0.00000158,0.00000062,0.00000146,0.00000
 065,0.00000061,-0.00000239,-0.00000147,-0.00000289,-0.00000073,0.00000
 334,0.00000123,-0.00000009,0.00000193,-0.00000127,0.,-0.00000077,0.000
 00065,0.00000098,0.00000017,0.00000383,-0.00000274,0.00000206,-0.00000
 043,0.00000014,-0.00000098,-0.00000058,-0.00000019,0.00000169,-0.00000
 162,0.00000099,-0.00000036,0.00000006,-0.00000071,0.00000273,-0.000000
 15,0.00000095,-0.00000117,-0.00000157,0.00000004,-0.00000111,0.0000009
 9,-0.00000023,0.00000147,0.00000140,0.00000075,-0.00000073,-0.00000047
 ,-0.00000015,-0.00000013,0.00000152,0.00000002,0.00000059,-0.00000050,
 0.00000001,0.00000056,0.00000337,0.00000194,-0.00000073,-0.00000117,0.
 00000064,-0.00000003,-0.00000092,-0.00000083,0.00000107,0.00000219,-0.
 00000016,-0.00000092,0.00000123,-0.00000237,0.00000174,0.00000081,0.00
 000227,-0.00000034,-0.00000056,-0.00000100,-0.00000088,0.00000066,0.00
 000118,0.00000103,0.00000169,-0.00000091,0.00000140,-0.00000045,-0.000
 00058,0.00000044,0.00000040,0.00000178,-0.00000010,0.00000129,0.000000
 67,-0.00000038,-0.00000036,-0.00000850,0.00000339,-0.00000036,0.000000
 39,-0.00000186,0.00000332,-0.00000358,0.00000384,0.00000002,0.00000069
 ,-0.00000069,-0.00000009,-0.00000369,0.00000218,-0.00000011,0.00000227
 ,0.00000075,0.00000084,0.00000089,-0.00000065,0.00000054,-0.00000404,-
 0.00000010,0.00000196,-0.00000327,-0.00000896,0.00000306,-0.00000568,0
 .00000252,-0.00000011,0.00000478,-0.00000106,-0.00000149,0.00000284,0.
 00000941,0.00000390,-0.00000236,-0.00000132,0.00000014,-0.00000284,0.0
 0000204,0.00000150,0.00000005,0.00000067,-0.00000428,-0.00000040,0.000
 00108,-0.00000998,-0.00000090,-0.00000338,-0.00233237,-0.00755231,-0.0
 0079733,-0.00064493,0.00175027,0.00044314,0.03269925,-0.00356655,-0.00
 763107,-0.00055182,0.00141404,0.00000477,-0.00030831,0.00123208,0.0007
 6443,-0.00013547,-0.00045675,0.00003676,0.00017853,-0.00005806,0.00000
 786,-0.00002748,0.00000303,-0.00001545,0.00254062,-0.00005817,-0.00048
 797,0.00028423,0.00040510,0.00004930,-0.00002155,-0.00005060,0.0000411
 2,-0.00005842,0.00005511,-0.00003785,-0.00003425,-0.00004738,-0.000015
 27,0.02876374,-0.05043587,-0.00627811,-0.00877187,0.00005137,0.0034776
 3,-0.01859835,0.00252900,0.00183898,0.00021970,-0.00006437,0.00005854,
 -0.00013075,0.00003579,-0.00006515,-0.00004647,0.00005242,0.00000779,-
 0.00003254,0.00000410,-0.00002066,-0.00000207,0.00000230,0.00000193,-0
 .03298444,0.05476336,-0.00015183,0.00000182,0.00006256,0.00004147,0.00
 003338,-0.00004142,-0.00000539,0.00009112,0.00004172,-0.00005485,-0.00
 010673,0.00003232,0.00014640,0.00000624,-0.00005865,0.00010190,0.00002
 053,-0.00001571,-0.00001820,-0.00000146,0.00001286,-0.00000727,0.00000
 904,0.00001423,0.00001480,0.00002600,-0.00001905,-0.00000037,-0.000027
 34,-0.00004589,0.00000280,0.00000002,-0.00000941,0.00000641,0.00001803
 ,-0.00006524,-0.00003552,-0.00000076,0.00003054,-0.00000199,-0.0000044
 3,-0.00000218,-0.00000236,-0.00000312,-0.00000166,-0.00002243,0.000029
 32,0.00004709,0.00005408,-0.00009305,-0.00002555,-0.00001346,0.0000164
 9,0.00000671,-0.00000801,-0.00001757,0.00000759,0.00000587,0.00000217,
 0.00002973,0.00003655,-0.00000452,0.00000366,0.00001615,-0.00002984,0.
 00001448,-0.00005569,-0.00000370,0.00001106,-0.00000079,0.00001094,-0.
 00003823,-0.00006068,0.00004911,-0.00007846,0.00002724,-0.00004796,0.0
 0001512,0.00000328,-0.00000873,0.00002161,-0.00000485,0.00000151,-0.00
 000810,0.00000018,0.00000245,-0.00000541,-0.00000369,0.00002200,0.0000
 0518,-0.00000157,0.00002238,-0.00000719,-0.00001389,-0.00000521,0.0000
 0050,-0.00001177,-0.00000083,-0.00000690,0.00003290,0.00001839,-0.0000
 0150,0.00000063,-0.00000142,0.00000052,-0.00000128,0.00000017,0.000000
 65,-0.00000059,0.00000002,-0.00000011,0.00000119,0.00000108,0.00000099
 ,-0.00000008,-0.00000063,0.00000091,0.00000018,-0.00000019,0.00000126,
 0.00000060,-0.00000031,-0.00000059,-0.00000026,0.00000079,0.00000007,-
 0.00000002,0.00000033,0.00000076,-0.00000038,-0.00000016,-0.00000097,0
 .00000001,0.00000026,0.00000145,0.00000020,-0.00000067,-0.00000022,0.0
 0000094,-0.00000037,0.00000038,-0.00000039,0.00000008,-0.00000076,-0.0
 0000052,0.00000025,-0.00000073,0.00000073,-0.00000015,0.00000162,0.000
 00126,0.00000032,-0.00000014,-0.00000066,-0.00000041,0.00000017,0.0000
 0168,0.00000044,0.00000017,-0.00000070,-0.00000024,0.00000007,0.000002
 27,0.00000102,-0.00000108,-0.00000109,0.00000011,0.00000021,-0.0000009
 2,-0.00000028,0.00000106,0.00000224,0.00000017,-0.00000075,0.00000107,
 -0.00000132,0.00000137,-0.00000016,0.00000092,-0.00000042,-0.00000092,
 -0.00000044,-0.00000088,0.00000136,0.00000053,0.00000114,0.00000142,-0
 .00000010,0.00000051,-0.00000073,-0.00000020,0.00000004,-0.00000037,0.
 00000094,-0.00000036,0.00000157,0.00000008,0.00000028,0.00000064,-0.00
 000374,0.00000128,-0.00000080,0.00000031,-0.00000120,0.00000129,-0.000
 00253,0.00000223,0.00000076,0.00000088,-0.00000071,0.00000106,-0.00000
 195,0.00000040,-0.00000075,0.00000148,0.00000053,0.00000146,0.00000066
 ,-0.00000075,0.,-0.00000251,0.00000045,-0.00000146,-0.00000307,-0.0000
 0528,0.00000273,-0.00000508,0.00000167,0.00000157,0.00000422,-0.000000
 82,-0.00000095,0.00000256,0.00000566,-0.00000069,-0.00000214,0.0000004
 5,0.00000121,-0.00000292,0.00000037,-0.00000004,0.00000045,0.00000033,
 -0.00000016,0.00000150,0.00000018,-0.00000238,0.00000006,-0.00000502,-
 0.00008425,-0.00096798,0.00038630,0.00019253,-0.00049088,0.00057341,0.
 00644824,0.00013953,-0.00256414,0.00019423,0.00034289,-0.00011375,-0.0
 0038877,-0.00002226,0.00022524,-0.00009178,-0.00011955,-0.00000908,0.0
 0006058,-0.00001811,-0.00000256,-0.00001604,0.00000813,0.00000661,0.00
 060540,-0.00024801,0.00002774,0.00013672,0.00010314,0.00000111,-0.0000
 2932,-0.00001602,0.00000816,-0.00001645,-0.00000102,-0.00000409,-0.000
 00853,-0.00002436,-0.00001654,0.05696596,-0.00645683,-0.06253476,-0.02
 445777,0.00391186,0.00724898,0.02402943,-0.00489453,-0.00404282,-0.000
 14119,0.00003668,-0.00005367,0.00007786,-0.00002172,0.00003307,0.00002
 566,-0.00002066,0.00000256,0.00001996,-0.00000328,0.00001323,-0.000004
 15,0.00000079,0.00000027,-0.06354550,0.00874769,0.06088192\\0.00000120
 ,-0.00000078,-0.00000162,-0.00000133,0.00000051,0.00000137,-0.00000060
 ,-0.00000077,-0.00000340,-0.00000700,-0.00000380,0.00000329,0.00000133
 ,0.00000072,-0.00000241,0.00000044,0.00000461,-0.00000110,-0.00000017,
 -0.00000310,0.00000295,-0.00000050,0.00000261,-0.00000070,-0.00000214,
 0.00000350,0.00000335,0.00000216,-0.00000460,0.00000062,0.00000030,-0.
 00000389,-0.00000419,0.00000047,-0.00000161,-0.00000158,-0.00000097,0.
 00000016,0.00000014,0.00000382,-0.00000155,0.00000049,-0.00000241,-0.0
 0000014,0.00000108,-0.00000364,0.00000186,0.00000178,-0.00000221,-0.00
 000284,0.00000112,0.00000034,0.00000092,-0.00000127,0.00000302,0.00000
 145,0.00000049,-0.00000381,-0.00000221,-0.00000307,0.00000650,-0.00000
 123,0.00000317,0.00000075,-0.00000119,-0.00000122,-0.00000467,0.000003
 63,0.00000043,0.00000147,0.00000021,0.00000722,-0.00000331,0.00000210,
 0.00000225,0.00000286,0.00000041,-0.00000515,0.00000012,0.00000050,-0.
 00000531,0.00000287,-0.00000551,-0.00000130,-0.00000735,0.00000022,0.0
 0000062,0.00000050,0.00000514,-0.00000505,0.00000246,0.00000142,0.0000
 0417,-0.00000195,0.00000033,0.00000312,-0.00000116,0.00000093,0.000006
 47,0.00000004,0.00000223,-0.00000065,0.00000106,0.00000063,-0.00000608
 ,-0.00000186,-0.00000209,0.00000446,-0.00000089,-0.00000057,0.00000059
 ,-0.00000235,0.00000076,-0.00000036,0.00000677,0.00000376,-0.00000423,
 -0.00000157,-0.00000186,0.00000369,-0.00000509,-0.00000028,0.00000396,
 -0.00000161,-0.00000263,0.00000091,0.00000155,-0.00000092,-0.00000104,
 0.00000031,-0.00000008,0.,-0.00000164,-0.00000086,-0.00000081,-0.00000
 166,0.00000151,0.00000082,-0.00000352,0.00000221,0.00000785,-0.0000009
 0,-0.00000307,-0.00000117,0.00000243,0.00000290,-0.00000318,-0.0000007
 3,-0.00000137,-0.00000159,0.00000137,0.00000122,0.00000062,0.00000041,
 -0.00000079,0.00000069,-0.00000091,-0.00000041,0.00000100,-0.00000109,
 0.00000133,0.00000220,-0.00000046,-0.00000659,0.00000252,0.00000145,0.
 00000452,-0.00000007,-0.00000052,0.00000134,-0.00000187,0.00000080,0.0
 0000144,0.00000113,-0.00000020,0.00000134,0.00000625,-0.00000239,0.000
 00174,-0.00000119,0.00000177,0.00000156,-0.00000231,-0.00000148,-0.000
 00098,0.00000053,-0.00000354,-0.00000065,-0.00000179,0.00000009,0.0000
 0186,0.00000086,0.00000015,0.00000412,0.00000157,0.00000438,0.00000057
 ,0.00000300,-0.00000082,0.00000166,0.00000241,0.00000132,-0.00000126,0
 .00000248,0.00000130,-0.00000003,-0.00000045,0.00000328,0.00000128,-0.
 00000131,0.00000481,0.00000086,-0.00000424,0.00000093,0.00000100,-0.00
 000149,-0.00000110,0.00000044,0.00000060,0.00000049,-0.00000078,0.0000
 0044,0.00000156,-0.00000685,-0.00000072,0.00000016,0.00000427,-0.00000
 076,-0.00000030,0.00000046,-0.00000152,0.00000138,0.00000120,-0.000002
 23,0.00000641,-0.00000019,0.00000432,-0.00000033,0.00000044,-0.0000007
 0,-0.00000128,-0.00000056,-0.00000137,-0.00000123,-0.00000101,-0.00000
 161,0.00000172,-0.00000065,-0.00000066,0.00000628,-0.00000552,-0.00000
 311,-0.00000282,0.00000012,-0.00000149,-0.00000406,-0.00000351,-0.0000
 0127,0.00000024,-0.00000016,-0.00000112,0.00000109,-0.00000012,-0.0000
 0228,-0.00000570,0.00000187,0.00002544,0.00000101,-0.00001529,-0.00002
 208,0.00000886,0.00001509,-0.00000268,-0.00000358,0.00000126,0.0000011
 2,0.00000742,0.00000335,-0.00000166,-0.00000025,-0.00000041,0.00000009
 ,-0.00000248,0.00000073,-0.00000111,-0.00000009,-0.00000213,-0.0000026
 0,-0.00000780,0.00000281,-0.00000332,0.00000475,0.00000100,0.00000809,
 0.00000137,-0.00000003,-0.00000071,0.00000215,-0.00000393,0.00000039,-
 0.00000019,-0.00000227,-0.00000108,-0.00000376,0.00000260,-0.00000259,
 -0.00000157,-0.00000262,-0.00000481,-0.00000104,-0.00000124,0.00000202
 ,0.00000429,-0.00000178,-0.00000150\\\@
 The archive entry for this job was punched.


 Not by the face shall a man be known, but by the mask.
                               -- Karen Blixen
 Job cpu time:       1 days 15 hours 15 minutes 30.8 seconds.
 Elapsed time:       0 days  2 hours 30 minutes  2.1 seconds.
 File lengths (MBytes):  RWF=   8253 Int=      0 D2E=      0 Chk=     49 Scr=      1
 Normal termination of Gaussian 16 at Sat Dec  7 22:49:57 2024.
