/mnt/lustre/scratch/nvme/SLURM/9663780/usccqdma.inlQa1Nlvc
OMP_STACKSIZE=0m
GAUSS_PDEF=16
GAUSS_MDEF=65536MB
GAUSS_RDEF=SCF=Direct
 Entering Gaussian System, Link 0=g16.exe
 Initial command:
 /opt/cesga/2020/software/Core/g16/c1/l1.exe "/mnt/lustre/scratch/nvme/SLURM/9663780/usccqdma.inlQa1Nlvc/Gau-1282206.inp" -scrdir="/mnt/lustre/scratch/nvme/SLURM/9663780/usccqdma.inlQa1Nlvc/"
 Default is to use a total of  16 processors:
                               16 via shared-memory
                                1 via Linda
 Entering Link 1 = /opt/cesga/2020/software/Core/g16/c1/l1.exe PID=   1282232.
  
 Copyright (c) 1988-2019, Gaussian, Inc.  All Rights Reserved.
  
 This is part of the Gaussian(R) 16 program.  It is based on
 the Gaussian(R) 09 system (copyright 2009, Gaussian, Inc.),
 the Gaussian(R) 03 system (copyright 2003, Gaussian, Inc.),
 the Gaussian(R) 98 system (copyright 1998, Gaussian, Inc.),
 the Gaussian(R) 94 system (copyright 1995, Gaussian, Inc.),
 the Gaussian 92(TM) system (copyright 1992, Gaussian, Inc.),
 the Gaussian 90(TM) system (copyright 1990, Gaussian, Inc.),
 the Gaussian 88(TM) system (copyright 1988, Gaussian, Inc.),
 the Gaussian 86(TM) system (copyright 1986, Carnegie Mellon
 University), and the Gaussian 82(TM) system (copyright 1983,
 Carnegie Mellon University). Gaussian is a federally registered
 trademark of Gaussian, Inc.
  
 This software contains proprietary and confidential information,
 including trade secrets, belonging to Gaussian, Inc.
  
 This software is provided under written license and may be
 used, copied, transmitted, or stored only in accord with that
 written license.
  
 The following legend is applicable only to US Government
 contracts under FAR:
  
                    RESTRICTED RIGHTS LEGEND
  
 Use, reproduction and disclosure by the US Government is
 subject to restrictions as set forth in subparagraphs (a)
 and (c) of the Commercial Computer Software - Restricted
 Rights clause in FAR 52.227-19.
  
 Gaussian, Inc.
 340 Quinnipiac St., Bldg. 40, Wallingford CT 06492
  
  
 ---------------------------------------------------------------
 Warning -- This program may not be used in any manner that
 competes with the business of Gaussian, Inc. or will provide
 assistance to any competitor of Gaussian, Inc.  The licensee
 of this program is prohibited from giving any competitor of
 Gaussian, Inc. access to this program.  By using this program,
 the user acknowledges that Gaussian, Inc. is engaged in the
 business of creating and licensing software in the field of
 computational chemistry and represents and warrants to the
 licensee that it is not a competitor of Gaussian, Inc. and that
 it will not use this program in any manner prohibited above.
 ---------------------------------------------------------------
  

 Cite this work as:
 Gaussian 16, Revision C.01,
 M. J. Frisch, G. W. Trucks, H. B. Schlegel, G. E. Scuseria, 
 M. A. Robb, J. R. Cheeseman, G. Scalmani, V. Barone, 
 G. A. Petersson, H. Nakatsuji, X. Li, M. Caricato, A. V. Marenich, 
 J. Bloino, B. G. Janesko, R. Gomperts, B. Mennucci, H. P. Hratchian, 
 J. V. Ortiz, A. F. Izmaylov, J. L. Sonnenberg, D. Williams-Young, 
 F. Ding, F. Lipparini, F. Egidi, J. Goings, B. Peng, A. Petrone, 
 T. Henderson, D. Ranasinghe, V. G. Zakrzewski, J. Gao, N. Rega, 
 G. Zheng, W. Liang, M. Hada, M. Ehara, K. Toyota, R. Fukuda, 
 J. Hasegawa, M. Ishida, T. Nakajima, Y. Honda, O. Kitao, H. Nakai, 
 T. Vreven, K. Throssell, J. A. Montgomery, Jr., J. E. Peralta, 
 F. Ogliaro, M. J. Bearpark, J. J. Heyd, E. N. Brothers, K. N. Kudin, 
 V. N. Staroverov, T. A. Keith, R. Kobayashi, J. Normand, 
 K. Raghavachari, A. P. Rendell, J. C. Burant, S. S. Iyengar, 
 J. Tomasi, M. Cossi, J. M. Millam, M. Klene, C. Adamo, R. Cammi, 
 J. W. Ochterski, R. L. Martin, K. Morokuma, O. Farkas, 
 J. B. Foresman, and D. J. Fox, Gaussian, Inc., Wallingford CT, 2019.
 
 ******************************************
 Gaussian 16:  ES64L-G16RevC.01  3-Jul-2019
                 7-Dec-2024 
 ******************************************
 Default route: SCF=Direct
 ----------------------------------------------------
 # m06/genecp scf=tight int=ultrafine 5d freq=noraman
 ----------------------------------------------------
 1/10=4,30=1,38=1/1,3;
 2/12=2,17=6,18=5,40=1/2;
 3/5=7,8=1,11=2,16=1,17=8,25=1,30=1,71=2,74=-54,75=-5,140=1/1,2,3;
 4//1;
 5/5=2,32=2,38=5,98=1/2;
 8/6=4,10=90,11=11/1;
 11/6=1,8=1,9=11,15=111,16=1/1,2,10;
 10/6=1/2;
 6/7=2,8=2,9=2,10=2,28=1/1;
 7/8=1,10=1,25=1/1,2,3,16;
 1/10=4,30=1/3;
 99//99;
 ------
 OPT-TS
 ------
 Symbolic Z-matrix:
 Charge =  0 Multiplicity = 1
 N                     2.22313   1.99372  -0.41232 
 C                     1.96823   3.31055  -0.43617 
 C                     2.98273   4.25586  -0.46794 
 C                     4.30369   3.81962  -0.442 
 C                     4.56909   2.45883  -0.40749 
 C                     3.50234   1.56369  -0.41557 
 H                     2.73575   5.31411  -0.49188 
 H                     5.58088   2.06419  -0.37143 
 N                     4.83582  -0.31408   0.24017 
 C                     3.73286   0.1003   -0.39476 
 C                     2.81974  -0.78624  -0.97768 
 C                     3.01267  -2.15437  -0.81603 
 C                     4.13534  -2.58652  -0.12434 
 C                     5.02416  -1.62619   0.35751 
 H                     2.01085  -0.43497  -1.63894 
 H                     2.27934  -2.84782  -1.22405 
 H                     4.33151  -3.64458   0.03532 
 Ir                    0.59593   0.45215  -0.18893 
 B                    -0.76333  -0.59586  -1.22231 
 O                    -2.15219  -0.51411  -1.23463 
 O                    -0.31859  -1.45199  -2.23205 
 C                    -2.60876  -1.11694  -2.45494 
 C                    -1.46633  -2.12429  -2.77313 
 C                    -2.72409  -0.01111  -3.49761 
 H                    -1.75201   0.46853  -3.67409 
 H                    -3.41724   0.75774  -3.13355 
 H                    -3.10906  -0.38942  -4.45413 
 C                    -3.96945  -1.7361   -2.20766 
 H                    -4.33025  -2.26728  -3.10028 
 H                    -4.69247  -0.94488  -1.96706 
 H                    -3.94755  -2.43668  -1.36562 
 C                    -1.23477  -2.38472  -4.24818 
 H                    -0.95594  -1.47024  -4.78312 
 H                    -2.13509  -2.80701  -4.71769 
 H                    -0.41932  -3.10926  -4.37136 
 C                    -1.62169  -3.44451  -2.03149 
 H                    -2.42232  -4.06106  -2.46288 
 H                    -1.82373  -3.27497  -0.9676 
 H                    -0.6769   -4.00044  -2.09782 
 B                    -0.96547   1.49774   0.48996 
 O                    -1.99334   1.11496   1.32265 
 O                    -1.15439   2.81497   0.04883 
 C                    -2.82086   2.25263   1.5762 
 C                    -2.51626   3.16869   0.35532 
 C                    -2.36985   2.85171   2.90169 
 C                    -4.25934   1.78375   1.67867 
 H                    -4.9515    2.63442   1.76097 
 H                    -4.37883   1.16054   2.5747 
 H                    -4.53975   1.17631   0.81044 
 C                    -2.59562   4.65578   0.63224 
 H                    -1.88583   4.96374   1.4082 
 H                    -3.60841   4.93794   0.9543 
 H                    -2.36547   5.21748  -0.28265 
 C                    -3.35304   2.81544  -0.86692 
 H                    -4.40109   3.12278  -0.74835 
 H                    -3.31383   1.73505  -1.0601 
 H                    -2.93785   3.33339  -1.74163 
 B                     0.01725  -1.08508   0.96727 
 O                    -0.23473  -0.92864   2.32177 
 O                    -0.00775  -2.44206   0.62517 
 C                    -0.78329  -2.16308   2.79479 
 C                    -0.11416  -3.19246   1.8451 
 C                    -2.29386  -2.07526   2.60608 
 H                    -2.55458  -1.96286   1.5435 
 H                    -2.65374  -1.17575   3.12145 
 H                    -2.81367  -2.95216   3.01653 
 C                    -0.44583  -2.33126   4.26169 
 H                    -0.77692  -3.31294   4.63077 
 H                    -0.95752  -1.55782   4.84844 
 H                     0.63034  -2.23203   4.44215 
 C                    -0.91927  -4.4511    1.59319 
 H                    -1.90883  -4.22739   1.17907 
 H                    -1.05405  -5.01848   2.52551 
 H                    -0.39115  -5.0949    0.87687 
 C                     1.30245  -3.55999   2.26886 
 H                     1.31333  -4.1999    3.16159 
 H                     1.89967  -2.66061   2.47113 
 H                     1.78456  -4.1076    1.44744 
 H                     0.91225   3.58249  -0.40676 
 H                    -1.33518   3.21324   2.84053 
 H                    -2.40302   2.06638   3.66743 
 H                    -3.01632   3.68005   3.22271 
 H                     5.93396  -1.93283   0.87681 
 H                     5.12235   4.53707  -0.44705 
 

 GradGradGradGradGradGradGradGradGradGradGradGradGradGradGradGradGradGrad
 Berny optimization.
 Initialization pass.
 Trust Radius=3.00D-01 FncErr=1.00D-07 GrdErr=1.00D-07 EigMax=2.50D+02 EigMin=1.00D-04
 Number of steps in this run=      2 maximum allowed number of steps=      2.
 GradGradGradGradGradGradGradGradGradGradGradGradGradGradGradGradGradGrad

 Stoichiometry    C28H44B3IrN2O6
 Framework group  C1[X(C28H44B3IrN2O6)]
 Deg. of freedom   246
 Full point group                 C1      NOp   1
 Largest Abelian subgroup         C1      NOp   1
 Largest concise Abelian subgroup C1      NOp   1
                         Standard orientation:                         
 ---------------------------------------------------------------------
 Center     Atomic      Atomic             Coordinates (Angstroms)
 Number     Number       Type             X           Y           Z
 ---------------------------------------------------------------------
      1          7           0        2.223131    1.993719   -0.412321
      2          6           0        1.968232    3.310549   -0.436171
      3          6           0        2.982732    4.255859   -0.467941
      4          6           0        4.303692    3.819618   -0.442001
      5          6           0        4.569091    2.458828   -0.407491
      6          6           0        3.502341    1.563688   -0.415571
      7          1           0        2.735753    5.314109   -0.491881
      8          1           0        5.580881    2.064187   -0.371431
      9          7           0        4.835820   -0.314082    0.240169
     10          6           0        3.732860    0.100298   -0.394761
     11          6           0        2.819740   -0.786241   -0.977681
     12          6           0        3.012669   -2.154371   -0.816031
     13          6           0        4.135339   -2.586522   -0.124341
     14          6           0        5.024159   -1.626192    0.357509
     15          1           0        2.010850   -0.434971   -1.638941
     16          1           0        2.279339   -2.847821   -1.224051
     17          1           0        4.331508   -3.644582    0.035319
     18         77           0        0.595930    0.452150   -0.188931
     19          5           0       -0.763330   -0.595859   -1.222311
     20          8           0       -2.152190   -0.514109   -1.234631
     21          8           0       -0.318591   -1.451990   -2.232051
     22          6           0       -2.608760   -1.116938   -2.454941
     23          6           0       -1.466331   -2.124289   -2.773131
     24          6           0       -2.724090   -0.011108   -3.497611
     25          1           0       -1.752010    0.468531   -3.674091
     26          1           0       -3.417239    0.757742   -3.133551
     27          1           0       -3.109060   -0.389418   -4.454131
     28          6           0       -3.969451   -1.736098   -2.207661
     29          1           0       -4.330251   -2.267278   -3.100281
     30          1           0       -4.692470   -0.944877   -1.967061
     31          1           0       -3.947551   -2.436678   -1.365621
     32          6           0       -1.234771   -2.384719   -4.248181
     33          1           0       -0.955941   -1.470239   -4.783121
     34          1           0       -2.135091   -2.807009   -4.717691
     35          1           0       -0.419321   -3.109260   -4.371361
     36          6           0       -1.621692   -3.444509   -2.031491
     37          1           0       -2.422322   -4.061058   -2.462881
     38          1           0       -1.823732   -3.274969   -0.967601
     39          1           0       -0.676902   -4.000439   -2.097821
     40          5           0       -0.965469    1.497741    0.489959
     41          8           0       -1.993339    1.114961    1.322649
     42          8           0       -1.154388    2.814971    0.048829
     43          6           0       -2.820859    2.252632    1.576199
     44          6           0       -2.516258    3.168692    0.355319
     45          6           0       -2.369848    2.851711    2.901689
     46          6           0       -4.259339    1.783752    1.678669
     47          1           0       -4.951498    2.634423    1.760969
     48          1           0       -4.378829    1.160543    2.574699
     49          1           0       -4.539749    1.176313    0.810439
     50          6           0       -2.595617    4.655782    0.632239
     51          1           0       -1.885827    4.963741    1.408199
     52          1           0       -3.608407    4.937942    0.954299
     53          1           0       -2.365467    5.217481   -0.282651
     54          6           0       -3.353038    2.815442   -0.866921
     55          1           0       -4.401088    3.122783   -0.748351
     56          1           0       -3.313829    1.735052   -1.060101
     57          1           0       -2.937848    3.333392   -1.741631
     58          5           0        0.017250   -1.085080    0.967269
     59          8           0       -0.234730   -0.928640    2.321769
     60          8           0       -0.007751   -2.442060    0.625169
     61          6           0       -0.783291   -2.163079    2.794789
     62          6           0       -0.114161   -3.192460    1.845099
     63          6           0       -2.293861   -2.075259    2.606079
     64          1           0       -2.554581   -1.962858    1.543499
     65          1           0       -2.653740   -1.175748    3.121449
     66          1           0       -2.813671   -2.952158    3.016529
     67          6           0       -0.445831   -2.331259    4.261689
     68          1           0       -0.776922   -3.312939    4.630769
     69          1           0       -0.957521   -1.557819    4.848439
     70          1           0        0.630339   -2.232030    4.442149
     71          6           0       -0.919272   -4.451099    1.593189
     72          1           0       -1.908832   -4.227389    1.179069
     73          1           0       -1.054052   -5.018479    2.525509
     74          1           0       -0.391152   -5.094900    0.876869
     75          6           0        1.302448   -3.559990    2.268859
     76          1           0        1.313328   -4.199900    3.161589
     77          1           0        1.899669   -2.660611    2.471129
     78          1           0        1.784558   -4.107601    1.447439
     79          1           0        0.912252    3.582490   -0.406761
     80          1           0       -1.335178    3.213241    2.840529
     81          1           0       -2.403019    2.066382    3.667429
     82          1           0       -3.016318    3.680052    3.222709
     83          1           0        5.933959   -1.932833    0.876809
     84          1           0        5.122352    4.537068   -0.447051
 ---------------------------------------------------------------------
 Rotational constants (GHZ):           0.0953746           0.0863062           0.0695682
 General basis read from cards:  (5D, 7F)
 ======================================================================================================
                                       Pseudopotential Parameters
 ======================================================================================================
  Center     Atomic      Valence      Angular      Power
  Number     Number     Electrons     Momentum     of R      Exponent        Coefficient   SO-Coeffient
 ======================================================================================================
    1          7
                                   No pseudopotential on this center.
    2          6
                                   No pseudopotential on this center.
    3          6
                                   No pseudopotential on this center.
    4          6
                                   No pseudopotential on this center.
    5          6
                                   No pseudopotential on this center.
    6          6
                                   No pseudopotential on this center.
    7          1
                                   No pseudopotential on this center.
    8          1
                                   No pseudopotential on this center.
    9          7
                                   No pseudopotential on this center.
   10          6
                                   No pseudopotential on this center.
   11          6
                                   No pseudopotential on this center.
   12          6
                                   No pseudopotential on this center.
   13          6
                                   No pseudopotential on this center.
   14          6
                                   No pseudopotential on this center.
   15          1
                                   No pseudopotential on this center.
   16          1
                                   No pseudopotential on this center.
   17          1
                                   No pseudopotential on this center.
   18         77           17
                                      G and up 
                                                     1      823.5880147       -0.15780140    0.00000000
                                                     2      364.6613336    -1517.52704460    0.00000000
                                                     2       55.7082801     -316.53065290    0.00000000
                                                     2       12.0464544      -91.88809410    0.00000000
                                                     2        3.5120610       -9.22417730    0.00000000
                                      S - G
                                                     0      188.0490770        3.15780140    0.00000000
                                                     1      340.4194712       26.83225770    0.00000000
                                                     2      128.2373673      800.42500070    0.00000000
                                                     2       33.8644961      369.40506830    0.00000000
                                                     2        4.7560005      242.41718990    0.00000000
                                                     2        3.9649974     -118.21732820    0.00000000
                                      P - G
                                                     0      289.7291139        2.15780140    0.00000000
                                                     1       87.4633789       61.96786100    0.00000000
                                                     2       30.4363766      269.05819860    0.00000000
                                                     2        4.0553412      231.16547930    0.00000000
                                                     2        3.5525341     -133.69526670    0.00000000
                                      D - G
                                                     0      136.4017106        3.15780140    0.00000000
                                                     1       95.0776925       45.93498030    0.00000000
                                                     2       49.2258410      359.03446680    0.00000000
                                                     2       15.0874145      176.47401190    0.00000000
                                                     2        4.0405764       54.51552860    0.00000000
                                      F - G
                                                     0      127.3507908        3.95461970    0.00000000
                                                     1       66.2364374       52.97736550    0.00000000
                                                     2       34.4299229      274.86433830    0.00000000
                                                     2       10.1995721      137.20473380    0.00000000
                                                     2        2.5409702       14.86333050    0.00000000
   19          5
                                   No pseudopotential on this center.
   20          8
                                   No pseudopotential on this center.
   21          8
                                   No pseudopotential on this center.
   22          6
                                   No pseudopotential on this center.
   23          6
                                   No pseudopotential on this center.
   24          6
                                   No pseudopotential on this center.
   25          1
                                   No pseudopotential on this center.
   26          1
                                   No pseudopotential on this center.
   27          1
                                   No pseudopotential on this center.
   28          6
                                   No pseudopotential on this center.
   29          1
                                   No pseudopotential on this center.
   30          1
                                   No pseudopotential on this center.
   31          1
                                   No pseudopotential on this center.
   32          6
                                   No pseudopotential on this center.
   33          1
                                   No pseudopotential on this center.
   34          1
                                   No pseudopotential on this center.
   35          1
                                   No pseudopotential on this center.
   36          6
                                   No pseudopotential on this center.
   37          1
                                   No pseudopotential on this center.
   38          1
                                   No pseudopotential on this center.
   39          1
                                   No pseudopotential on this center.
   40          5
                                   No pseudopotential on this center.
   41          8
                                   No pseudopotential on this center.
   42          8
                                   No pseudopotential on this center.
   43          6
                                   No pseudopotential on this center.
   44          6
                                   No pseudopotential on this center.
   45          6
                                   No pseudopotential on this center.
   46          6
                                   No pseudopotential on this center.
   47          1
                                   No pseudopotential on this center.
   48          1
                                   No pseudopotential on this center.
   49          1
                                   No pseudopotential on this center.
   50          6
                                   No pseudopotential on this center.
   51          1
                                   No pseudopotential on this center.
   52          1
                                   No pseudopotential on this center.
   53          1
                                   No pseudopotential on this center.
   54          6
                                   No pseudopotential on this center.
   55          1
                                   No pseudopotential on this center.
   56          1
                                   No pseudopotential on this center.
   57          1
                                   No pseudopotential on this center.
   58          5
                                   No pseudopotential on this center.
   59          8
                                   No pseudopotential on this center.
   60          8
                                   No pseudopotential on this center.
   61          6
                                   No pseudopotential on this center.
   62          6
                                   No pseudopotential on this center.
   63          6
                                   No pseudopotential on this center.
   64          1
                                   No pseudopotential on this center.
   65          1
                                   No pseudopotential on this center.
   66          1
                                   No pseudopotential on this center.
   67          6
                                   No pseudopotential on this center.
   68          1
                                   No pseudopotential on this center.
   69          1
                                   No pseudopotential on this center.
   70          1
                                   No pseudopotential on this center.
   71          6
                                   No pseudopotential on this center.
   72          1
                                   No pseudopotential on this center.
   73          1
                                   No pseudopotential on this center.
   74          1
                                   No pseudopotential on this center.
   75          6
                                   No pseudopotential on this center.
   76          1
                                   No pseudopotential on this center.
   77          1
                                   No pseudopotential on this center.
   78          1
                                   No pseudopotential on this center.
   79          1
                                   No pseudopotential on this center.
   80          1
                                   No pseudopotential on this center.
   81          1
                                   No pseudopotential on this center.
   82          1
                                   No pseudopotential on this center.
   83          1
                                   No pseudopotential on this center.
   84          1
                                   No pseudopotential on this center.
 ======================================================================================================
 There are   697 symmetry adapted cartesian basis functions of A   symmetry.
 There are   656 symmetry adapted basis functions of A   symmetry.
   656 basis functions,  1311 primitive gaussians,   697 cartesian basis functions
   153 alpha electrons      153 beta electrons
       nuclear repulsion energy      5532.3425743596 Hartrees.
 NAtoms=   84 NActive=   84 NUniq=   84 SFac= 1.00D+00 NAtFMM=   60 NAOKFM=T Big=T
 Integral buffers will be    131072 words long.
 Raffenetti 2 integral format.
 Two-electron integral symmetry is turned on.
 One-electron integrals computed using PRISM.
   1 Symmetry operations used in ECPInt.
 ECPInt:  NShTT=   31878 NPrTT=  193976 LenC2=   25768 LenP2D=   82983.
 LDataN:  DoStor=T MaxTD1= 6 Len=  172
 NBasis=   656 RedAO= T EigKep=  6.85D-04  NBF=   656
 NBsUse=   656 1.00D-06 EigRej= -1.00D+00 NBFU=   656
 Defaulting to unpruned grid for atomic number  77.
 ExpMin= 2.90D-02 ExpMax= 5.48D+03 ExpMxC= 8.25D+02 IAcc=3 IRadAn=         5 AccDes= 0.00D+00
 Harris functional with IExCor= 1009 and IRadAn=       5 diagonalized for initial guess.
 HarFok:  IExCor= 1009 AccDes= 0.00D+00 IRadAn=         5 IDoV= 1 UseB2=F ITyADJ=14
 ICtDFT=  3500011 ScaDFX=  1.000000  1.000000  1.000000  1.000000
 Defaulting to unpruned grid for atomic number  77.
 FoFCou: FMM=F IPFlag=           0 FMFlag=      100000 FMFlg1=        2001
         NFxFlg=           0 DoJE=T BraDBF=F KetDBF=T FulRan=T
         wScrn=  0.000000 ICntrl=       500 IOpCl=  0 I1Cent=   200000004 NGrid=           0
         NMat0=    1 NMatS0=      1 NMatT0=    0 NMatD0=    1 NMtDS0=    0 NMtDT0=    0
 Petite list used in FoFCou.
 Requested convergence on RMS density matrix=1.00D-08 within 128 cycles.
 Requested convergence on MAX density matrix=1.00D-06.
 Requested convergence on             energy=1.00D-06.
 No special actions if energy rises.
 Defaulting to unpruned grid for atomic number  77.
 Defaulting to unpruned grid for atomic number  77.
 Defaulting to unpruned grid for atomic number  77.
 Defaulting to unpruned grid for atomic number  77.
 Defaulting to unpruned grid for atomic number  77.
 Defaulting to unpruned grid for atomic number  77.
 Defaulting to unpruned grid for atomic number  77.
 Defaulting to unpruned grid for atomic number  77.
 Defaulting to unpruned grid for atomic number  77.
 Defaulting to unpruned grid for atomic number  77.
 Defaulting to unpruned grid for atomic number  77.
 Defaulting to unpruned grid for atomic number  77.
 Defaulting to unpruned grid for atomic number  77.
 Defaulting to unpruned grid for atomic number  77.
 Defaulting to unpruned grid for atomic number  77.
 Defaulting to unpruned grid for atomic number  77.
 SCF Done:  E(RM06) =  -1832.75380933     A.U. after   14 cycles
            NFock= 14  Conv=0.93D-08     -V/T= 2.0471
 DoSCS=F DFT=T ScalE2(SS,OS)=  1.000000  1.000000
 Range of M.O.s used for correlation:     1   656
 NBasis=   656 NAE=   153 NBE=   153 NFC=     0 NFV=     0
 NROrb=    656 NOA=   153 NOB=   153 NVA=   503 NVB=   503
   1 Symmetry operations used in ECPInt.
 ECPInt:  NShTT=   31878 NPrTT=  193976 LenC2=   25768 LenP2D=   82983.
 LDataN:  DoStor=T MaxTD1= 7 Len=  274
 Number of processors reduced to  11 by ecpmxn.
 Symmetrizing basis deriv contribution to polar:
 IMax=3 JMax=2 DiffMx= 0.00D+00
 G2DrvN: will do    85 centers at a time, making    1 passes.
 Calling FoFCou, ICntrl=  3107 FMM=T I1Cent=   0 AccDes= 0.00D+00.
 Defaulting to unpruned grid for atomic number  77.
 Defaulting to unpruned grid for atomic number  77.
 Defaulting to unpruned grid for atomic number  77.
 Defaulting to unpruned grid for atomic number  77.
 Defaulting to unpruned grid for atomic number  77.
 Defaulting to unpruned grid for atomic number  77.
 Defaulting to unpruned grid for atomic number  77.
 Defaulting to unpruned grid for atomic number  77.
 Defaulting to unpruned grid for atomic number  77.
 Defaulting to unpruned grid for atomic number  77.
 Defaulting to unpruned grid for atomic number  77.
 Defaulting to unpruned grid for atomic number  77.
 Defaulting to unpruned grid for atomic number  77.
 Defaulting to unpruned grid for atomic number  77.
 Defaulting to unpruned grid for atomic number  77.
 Defaulting to unpruned grid for atomic number  77.
 End of G2Drv F.D. properties file   721 does not exist.
 End of G2Drv F.D. properties file   722 does not exist.
 End of G2Drv F.D. properties file   788 does not exist.
          IDoAtm=11111111111111111111111111111111111111111111111111
          IDoAtm=1111111111111111111111111111111111
          Differentiating once with respect to electric field.
                with respect to dipole field.
          Differentiating once with respect to nuclear coordinates.
 Defaulting to unpruned grid for atomic number  77.
 CalDSu exits because no D1Ps are significant.
 Defaulting to unpruned grid for atomic number  77.
 Defaulting to unpruned grid for atomic number  77.
 Defaulting to unpruned grid for atomic number  77.
 Defaulting to unpruned grid for atomic number  77.
 Defaulting to unpruned grid for atomic number  77.
 Defaulting to unpruned grid for atomic number  77.
 Defaulting to unpruned grid for atomic number  77.
 Defaulting to unpruned grid for atomic number  77.
 Defaulting to unpruned grid for atomic number  77.
 Defaulting to unpruned grid for atomic number  77.
 Defaulting to unpruned grid for atomic number  77.
 Defaulting to unpruned grid for atomic number  77.
 Defaulting to unpruned grid for atomic number  77.
 Defaulting to unpruned grid for atomic number  77.
 Defaulting to unpruned grid for atomic number  77.
 Defaulting to unpruned grid for atomic number  77.
          There are   255 degrees of freedom in the 1st order CPHF.  IDoFFX=6 NUNeed=     3.
    252 vectors produced by pass  0 Test12= 7.70D-14 1.00D-09 XBig12= 4.22D+02 7.14D+00.
 AX will form    72 AO Fock derivatives at one time.
    252 vectors produced by pass  1 Test12= 7.70D-14 1.00D-09 XBig12= 7.31D+01 9.31D-01.
    252 vectors produced by pass  2 Test12= 7.70D-14 1.00D-09 XBig12= 1.14D+00 1.84D-01.
    252 vectors produced by pass  3 Test12= 7.70D-14 1.00D-09 XBig12= 7.73D-03 1.19D-02.
    252 vectors produced by pass  4 Test12= 7.70D-14 1.00D-09 XBig12= 2.60D-05 5.53D-04.
    222 vectors produced by pass  5 Test12= 7.70D-14 1.00D-09 XBig12= 5.38D-08 2.13D-05.
     72 vectors produced by pass  6 Test12= 7.70D-14 1.00D-09 XBig12= 7.82D-11 6.96D-07.
      3 vectors produced by pass  7 Test12= 7.70D-14 1.00D-09 XBig12= 1.03D-13 2.29D-08.
 InvSVY:  IOpt=1 It=  1 EMax= 1.95D-14
 Solved reduced A of dimension  1557 with   255 vectors.
 Isotropic polarizability for W=    0.000000      396.64 Bohr**3.
 End of Minotr F.D. properties file   721 does not exist.
 End of Minotr F.D. properties file   722 does not exist.
 End of Minotr F.D. properties file   788 does not exist.

 **********************************************************************

            Population analysis using the SCF Density.

 **********************************************************************

 Orbital symmetries:
       Occupied  (A) (A) (A) (A) (A) (A) (A) (A) (A) (A) (A) (A)
                 (A) (A) (A) (A) (A) (A) (A) (A) (A) (A) (A) (A)
                 (A) (A) (A) (A) (A) (A) (A) (A) (A) (A) (A) (A)
                 (A) (A) (A) (A) (A) (A) (A) (A) (A) (A) (A) (A)
                 (A) (A) (A) (A) (A) (A) (A) (A) (A) (A) (A) (A)
                 (A) (A) (A) (A) (A) (A) (A) (A) (A) (A) (A) (A)
                 (A) (A) (A) (A) (A) (A) (A) (A) (A) (A) (A) (A)
                 (A) (A) (A) (A) (A) (A) (A) (A) (A) (A) (A) (A)
                 (A) (A) (A) (A) (A) (A) (A) (A) (A) (A) (A) (A)
                 (A) (A) (A) (A) (A) (A) (A) (A) (A) (A) (A) (A)
                 (A) (A) (A) (A) (A) (A) (A) (A) (A) (A) (A) (A)
                 (A) (A) (A) (A) (A) (A) (A) (A) (A) (A) (A) (A)
                 (A) (A) (A) (A) (A) (A) (A) (A) (A)
       Virtual   (A) (A) (A) (A) (A) (A) (A) (A) (A) (A) (A) (A)
                 (A) (A) (A) (A) (A) (A) (A) (A) (A) (A) (A) (A)
                 (A) (A) (A) (A) (A) (A) (A) (A) (A) (A) (A) (A)
                 (A) (A) (A) (A) (A) (A) (A) (A) (A) (A) (A) (A)
                 (A) (A) (A) (A) (A) (A) (A) (A) (A) (A) (A) (A)
                 (A) (A) (A) (A) (A) (A) (A) (A) (A) (A) (A) (A)
                 (A) (A) (A) (A) (A) (A) (A) (A) (A) (A) (A) (A)
                 (A) (A) (A) (A) (A) (A) (A) (A) (A) (A) (A) (A)
                 (A) (A) (A) (A) (A) (A) (A) (A) (A) (A) (A) (A)
                 (A) (A) (A) (A) (A) (A) (A) (A) (A) (A) (A) (A)
                 (A) (A) (A) (A) (A) (A) (A) (A) (A) (A) (A) (A)
                 (A) (A) (A) (A) (A) (A) (A) (A) (A) (A) (A) (A)
                 (A) (A) (A) (A) (A) (A) (A) (A) (A) (A) (A) (A)
                 (A) (A) (A) (A) (A) (A) (A) (A) (A) (A) (A) (A)
                 (A) (A) (A) (A) (A) (A) (A) (A) (A) (A) (A) (A)
                 (A) (A) (A) (A) (A) (A) (A) (A) (A) (A) (A) (A)
                 (A) (A) (A) (A) (A) (A) (A) (A) (A) (A) (A) (A)
                 (A) (A) (A) (A) (A) (A) (A) (A) (A) (A) (A) (A)
                 (A) (A) (A) (A) (A) (A) (A) (A) (A) (A) (A) (A)
                 (A) (A) (A) (A) (A) (A) (A) (A) (A) (A) (A) (A)
                 (A) (A) (A) (A) (A) (A) (A) (A) (A) (A) (A) (A)
                 (A) (A) (A) (A) (A) (A) (A) (A) (A) (A) (A) (A)
                 (A) (A) (A) (A) (A) (A) (A) (A) (A) (A) (A) (A)
                 (A) (A) (A) (A) (A) (A) (A) (A) (A) (A) (A) (A)
                 (A) (A) (A) (A) (A) (A) (A) (A) (A) (A) (A) (A)
                 (A) (A) (A) (A) (A) (A) (A) (A) (A) (A) (A) (A)
                 (A) (A) (A) (A) (A) (A) (A) (A) (A) (A) (A) (A)
                 (A) (A) (A) (A) (A) (A) (A) (A) (A) (A) (A) (A)
                 (A) (A) (A) (A) (A) (A) (A) (A) (A) (A) (A) (A)
                 (A) (A) (A) (A) (A) (A) (A) (A) (A) (A) (A) (A)
                 (A) (A) (A) (A) (A) (A) (A) (A) (A) (A) (A) (A)
                 (A) (A) (A) (A) (A) (A) (A) (A) (A) (A) (A) (A)
                 (A) (A) (A) (A) (A) (A) (A) (A) (A) (A) (A) (A)
                 (A) (A) (A) (A) (A) (A) (A) (A) (A) (A) (A) (A)
                 (A) (A) (A) (A) (A) (A) (A) (A) (A) (A) (A) (A)
                 (A) (A) (A) (A) (A) (A) (A) (A) (A) (A) (A) (A)
                 (A) (A) (A) (A) (A) (A) (A) (A) (A) (A) (A) (A)
                 (A) (A) (A) (A) (A) (A) (A) (A) (A) (A) (A) (A)
                 (A) (A) (A) (A) (A) (A) (A) (A) (A) (A) (A) (A)
                 (A) (A) (A) (A) (A) (A) (A) (A) (A) (A) (A) (A)
                 (A) (A) (A) (A) (A) (A) (A) (A) (A) (A) (A) (A)
                 (A) (A) (A) (A) (A) (A) (A) (A) (A) (A) (A)
 The electronic state is 1-A.
 Alpha  occ. eigenvalues --  -19.20173 -19.19999 -19.19906 -19.19776 -19.19183
 Alpha  occ. eigenvalues --  -19.18972 -14.45311 -14.41463 -10.31989 -10.30970
 Alpha  occ. eigenvalues --  -10.30609 -10.29736 -10.29143 -10.29074 -10.29022
 Alpha  occ. eigenvalues --  -10.28962 -10.28885 -10.28702 -10.28493 -10.27845
 Alpha  occ. eigenvalues --  -10.27745 -10.27675 -10.27216 -10.26868 -10.22731
 Alpha  occ. eigenvalues --  -10.22587 -10.22546 -10.22524 -10.22330 -10.22201
 Alpha  occ. eigenvalues --  -10.22135 -10.22104 -10.21844 -10.21652 -10.21619
 Alpha  occ. eigenvalues --  -10.21238  -6.79849  -6.79512  -6.79325  -3.60400
 Alpha  occ. eigenvalues --   -2.03467  -2.02514  -2.01753  -1.05855  -1.05642
 Alpha  occ. eigenvalues --   -1.05503  -0.99422  -0.98923  -0.98772  -0.98483
 Alpha  occ. eigenvalues --   -0.96727  -0.84033  -0.82637  -0.82048  -0.80106
 Alpha  occ. eigenvalues --   -0.79917  -0.79785  -0.76914  -0.74556  -0.74388
 Alpha  occ. eigenvalues --   -0.74300  -0.70102  -0.69951  -0.69840  -0.68203
 Alpha  occ. eigenvalues --   -0.67349  -0.67298  -0.67158  -0.67106  -0.64224
 Alpha  occ. eigenvalues --   -0.62732  -0.61542  -0.60910  -0.60816  -0.56654
 Alpha  occ. eigenvalues --   -0.54473  -0.54153  -0.54091  -0.53282  -0.53212
 Alpha  occ. eigenvalues --   -0.52715  -0.52471  -0.52058  -0.50132  -0.49474
 Alpha  occ. eigenvalues --   -0.47571  -0.47050  -0.46584  -0.46416  -0.45868
 Alpha  occ. eigenvalues --   -0.45763  -0.45693  -0.45499  -0.45234  -0.44588
 Alpha  occ. eigenvalues --   -0.44199  -0.43888  -0.43873  -0.43277  -0.43070
 Alpha  occ. eigenvalues --   -0.42998  -0.42051  -0.41890  -0.40637  -0.40412
 Alpha  occ. eigenvalues --   -0.39817  -0.39757  -0.39715  -0.39564  -0.39246
 Alpha  occ. eigenvalues --   -0.39204  -0.39078  -0.38864  -0.38809  -0.38447
 Alpha  occ. eigenvalues --   -0.38306  -0.38059  -0.37308  -0.37142  -0.36901
 Alpha  occ. eigenvalues --   -0.36337  -0.36185  -0.36090  -0.35930  -0.35676
 Alpha  occ. eigenvalues --   -0.35444  -0.35381  -0.34568  -0.34380  -0.34282
 Alpha  occ. eigenvalues --   -0.33075  -0.32879  -0.32164  -0.31867  -0.31595
 Alpha  occ. eigenvalues --   -0.31470  -0.31259  -0.30913  -0.30814  -0.29904
 Alpha  occ. eigenvalues --   -0.29712  -0.29548  -0.28813  -0.28167  -0.27888
 Alpha  occ. eigenvalues --   -0.27652  -0.26308  -0.25740  -0.25459  -0.25188
 Alpha  occ. eigenvalues --   -0.21749  -0.20625  -0.20329
 Alpha virt. eigenvalues --   -0.06378  -0.03943  -0.03125  -0.00555   0.01116
 Alpha virt. eigenvalues --    0.03331   0.03895   0.05915   0.06777   0.07522
 Alpha virt. eigenvalues --    0.08253   0.09888   0.10016   0.10308   0.11027
 Alpha virt. eigenvalues --    0.12052   0.12187   0.12440   0.12803   0.13176
 Alpha virt. eigenvalues --    0.13471   0.14090   0.14585   0.14723   0.15245
 Alpha virt. eigenvalues --    0.15421   0.15479   0.15701   0.15984   0.16123
 Alpha virt. eigenvalues --    0.16289   0.16384   0.16632   0.16747   0.16802
 Alpha virt. eigenvalues --    0.17292   0.17462   0.17784   0.17894   0.18038
 Alpha virt. eigenvalues --    0.18393   0.18590   0.18746   0.19277   0.19449
 Alpha virt. eigenvalues --    0.19470   0.19696   0.19897   0.20129   0.20570
 Alpha virt. eigenvalues --    0.20817   0.20969   0.21152   0.21476   0.21675
 Alpha virt. eigenvalues --    0.21778   0.22542   0.22736   0.23319   0.23719
 Alpha virt. eigenvalues --    0.24065   0.24173   0.24589   0.25160   0.25249
 Alpha virt. eigenvalues --    0.25562   0.25630   0.26172   0.26371   0.26711
 Alpha virt. eigenvalues --    0.26981   0.27157   0.27484   0.28183   0.28406
 Alpha virt. eigenvalues --    0.29053   0.29232   0.29585   0.30003   0.30213
 Alpha virt. eigenvalues --    0.30643   0.30884   0.31452   0.32553   0.32878
 Alpha virt. eigenvalues --    0.33329   0.33476   0.34486   0.34955   0.35993
 Alpha virt. eigenvalues --    0.36658   0.37504   0.38025   0.39451   0.40191
 Alpha virt. eigenvalues --    0.41981   0.43865   0.44798   0.45765   0.46898
 Alpha virt. eigenvalues --    0.48152   0.49098   0.49605   0.50339   0.50448
 Alpha virt. eigenvalues --    0.51235   0.51462   0.51658   0.51822   0.52138
 Alpha virt. eigenvalues --    0.52337   0.52871   0.53661   0.53983   0.54983
 Alpha virt. eigenvalues --    0.55565   0.55943   0.56481   0.56738   0.56993
 Alpha virt. eigenvalues --    0.57604   0.57819   0.57972   0.58583   0.58744
 Alpha virt. eigenvalues --    0.58914   0.59177   0.59235   0.59706   0.59782
 Alpha virt. eigenvalues --    0.60099   0.60258   0.60663   0.61387   0.61749
 Alpha virt. eigenvalues --    0.62017   0.62282   0.62712   0.62825   0.63235
 Alpha virt. eigenvalues --    0.63920   0.64079   0.64334   0.65172   0.65610
 Alpha virt. eigenvalues --    0.66205   0.66366   0.66752   0.66997   0.67147
 Alpha virt. eigenvalues --    0.67686   0.68285   0.68789   0.69606   0.70141
 Alpha virt. eigenvalues --    0.70266   0.70651   0.71423   0.71588   0.71907
 Alpha virt. eigenvalues --    0.72211   0.72670   0.73374   0.73736   0.73804
 Alpha virt. eigenvalues --    0.73982   0.74580   0.74996   0.75569   0.75967
 Alpha virt. eigenvalues --    0.76741   0.77598   0.77997   0.78154   0.79010
 Alpha virt. eigenvalues --    0.79555   0.79567   0.79948   0.80468   0.80780
 Alpha virt. eigenvalues --    0.81058   0.81651   0.82002   0.82608   0.82778
 Alpha virt. eigenvalues --    0.83051   0.83441   0.84105   0.84377   0.84643
 Alpha virt. eigenvalues --    0.84661   0.84822   0.85208   0.85581   0.85897
 Alpha virt. eigenvalues --    0.86119   0.86552   0.86907   0.87319   0.87605
 Alpha virt. eigenvalues --    0.88098   0.88210   0.88520   0.88702   0.89459
 Alpha virt. eigenvalues --    0.89767   0.89923   0.90018   0.90169   0.90741
 Alpha virt. eigenvalues --    0.90890   0.91044   0.91178   0.91560   0.91978
 Alpha virt. eigenvalues --    0.92359   0.92788   0.93100   0.93287   0.93600
 Alpha virt. eigenvalues --    0.93975   0.94268   0.94697   0.95236   0.95638
 Alpha virt. eigenvalues --    0.95947   0.96231   0.96441   0.97325   0.97822
 Alpha virt. eigenvalues --    0.98271   0.98524   0.98866   0.99734   1.00277
 Alpha virt. eigenvalues --    1.00473   1.01039   1.01327   1.01792   1.02513
 Alpha virt. eigenvalues --    1.03102   1.03775   1.03982   1.05120   1.05490
 Alpha virt. eigenvalues --    1.05947   1.06127   1.07118   1.08063   1.09082
 Alpha virt. eigenvalues --    1.09657   1.11046   1.11303   1.13395   1.13549
 Alpha virt. eigenvalues --    1.14179   1.14918   1.15262   1.16221   1.17015
 Alpha virt. eigenvalues --    1.18266   1.19054   1.19672   1.20484   1.21054
 Alpha virt. eigenvalues --    1.21822   1.22708   1.23457   1.24638   1.25128
 Alpha virt. eigenvalues --    1.25366   1.26584   1.27009   1.28006   1.28494
 Alpha virt. eigenvalues --    1.29685   1.30446   1.30717   1.32857   1.33526
 Alpha virt. eigenvalues --    1.33897   1.34698   1.35647   1.37106   1.38109
 Alpha virt. eigenvalues --    1.38775   1.39616   1.40626   1.40993   1.42602
 Alpha virt. eigenvalues --    1.43040   1.44090   1.44815   1.45528   1.45900
 Alpha virt. eigenvalues --    1.46115   1.46940   1.47220   1.47477   1.48535
 Alpha virt. eigenvalues --    1.48555   1.49155   1.49656   1.50762   1.51026
 Alpha virt. eigenvalues --    1.52102   1.53427   1.53823   1.55383   1.55934
 Alpha virt. eigenvalues --    1.57725   1.58341   1.58733   1.60727   1.62856
 Alpha virt. eigenvalues --    1.63134   1.64075   1.64468   1.65106   1.65464
 Alpha virt. eigenvalues --    1.67394   1.67567   1.68169   1.68739   1.69228
 Alpha virt. eigenvalues --    1.69412   1.70283   1.71313   1.71913   1.73695
 Alpha virt. eigenvalues --    1.76018   1.76312   1.77124   1.77977   1.78211
 Alpha virt. eigenvalues --    1.78453   1.79322   1.80449   1.81002   1.81309
 Alpha virt. eigenvalues --    1.82127   1.82455   1.83369   1.83595   1.84696
 Alpha virt. eigenvalues --    1.85058   1.85869   1.86266   1.86946   1.87037
 Alpha virt. eigenvalues --    1.87578   1.88315   1.89452   1.89824   1.90957
 Alpha virt. eigenvalues --    1.91055   1.91442   1.91600   1.92146   1.92212
 Alpha virt. eigenvalues --    1.92995   1.93156   1.93451   1.93549   1.93977
 Alpha virt. eigenvalues --    1.94255   1.96106   1.96423   1.97215   1.97586
 Alpha virt. eigenvalues --    1.97808   1.98980   1.99320   2.00891   2.01546
 Alpha virt. eigenvalues --    2.02411   2.03285   2.03423   2.03897   2.04099
 Alpha virt. eigenvalues --    2.05569   2.06185   2.07007   2.07092   2.07287
 Alpha virt. eigenvalues --    2.07677   2.08223   2.09360   2.09969   2.10577
 Alpha virt. eigenvalues --    2.11082   2.11248   2.11964   2.12512   2.13943
 Alpha virt. eigenvalues --    2.14511   2.14709   2.14807   2.14852   2.15501
 Alpha virt. eigenvalues --    2.15849   2.17068   2.17454   2.18156   2.19014
 Alpha virt. eigenvalues --    2.19350   2.19574   2.19835   2.19958   2.20233
 Alpha virt. eigenvalues --    2.20387   2.21485   2.21792   2.22294   2.22871
 Alpha virt. eigenvalues --    2.23724   2.24072   2.24170   2.25520   2.26109
 Alpha virt. eigenvalues --    2.26209   2.26482   2.27174   2.27393   2.27788
 Alpha virt. eigenvalues --    2.28453   2.28644   2.30867   2.31880   2.32066
 Alpha virt. eigenvalues --    2.32201   2.32682   2.33163   2.33544   2.33953
 Alpha virt. eigenvalues --    2.34272   2.34626   2.35345   2.37703   2.39405
 Alpha virt. eigenvalues --    2.39521   2.40374   2.43555   2.43931   2.45853
 Alpha virt. eigenvalues --    2.47047   2.47737   2.48672   2.49121   2.49533
 Alpha virt. eigenvalues --    2.50051   2.51245   2.52390   2.54114   2.54916
 Alpha virt. eigenvalues --    2.56978   2.59333   2.59774   2.60751   2.61659
 Alpha virt. eigenvalues --    2.63473   2.64721   2.64991   2.65071   2.65622
 Alpha virt. eigenvalues --    2.66539   2.67070   2.68960   2.71128   2.73242
 Alpha virt. eigenvalues --    2.78302   2.78545   2.78790   2.79163   2.79429
 Alpha virt. eigenvalues --    2.79790   2.80281   2.80888   2.81208   2.81776
 Alpha virt. eigenvalues --    2.81999   2.83962   2.84739   2.85796   2.86190
 Alpha virt. eigenvalues --    2.88887   2.90204   2.91069   2.91554   2.95668
 Alpha virt. eigenvalues --    2.96441   2.97610   3.00227   3.03729   3.05180
 Alpha virt. eigenvalues --    3.07326   3.11178   3.12829   3.13327   3.20348
 Alpha virt. eigenvalues --    3.32677   3.41462   9.52696
          Condensed to atoms (all electrons):
 Mulliken charges:
               1
     1  N   -0.544498
     2  C    0.043626
     3  C   -0.179987
     4  C   -0.128339
     5  C   -0.174818
     6  C    0.303049
     7  H    0.184608
     8  H    0.198515
     9  N   -0.417724
    10  C    0.200339
    11  C   -0.207409
    12  C   -0.098542
    13  C   -0.165932
    14  C    0.004925
    15  H    0.269336
    16  H    0.203653
    17  H    0.173785
    18  Ir  -0.071316
    19  B    0.456108
    20  O   -0.520364
    21  O   -0.534047
    22  C    0.293253
    23  C    0.294541
    24  C   -0.509501
    25  H    0.178766
    26  H    0.164610
    27  H    0.150697
    28  C   -0.503715
    29  H    0.149188
    30  H    0.163589
    31  H    0.170470
    32  C   -0.511760
    33  H    0.170126
    34  H    0.148860
    35  H    0.165878
    36  C   -0.482989
    37  H    0.142232
    38  H    0.169244
    39  H    0.156075
    40  B    0.499061
    41  O   -0.496834
    42  O   -0.542196
    43  C    0.297604
    44  C    0.295636
    45  C   -0.506000
    46  C   -0.503740
    47  H    0.144720
    48  H    0.165676
    49  H    0.173420
    50  C   -0.513177
    51  H    0.166825
    52  H    0.152289
    53  H    0.164775
    54  C   -0.512458
    55  H    0.146235
    56  H    0.186583
    57  H    0.163879
    58  B    0.450789
    59  O   -0.496484
    60  O   -0.531984
    61  C    0.295729
    62  C    0.300424
    63  C   -0.493545
    64  H    0.174901
    65  H    0.170758
    66  H    0.139122
    67  C   -0.515202
    68  H    0.146116
    69  H    0.171741
    70  H    0.169606
    71  C   -0.506445
    72  H    0.168066
    73  H    0.151763
    74  H    0.161985
    75  C   -0.504108
    76  H    0.151079
    77  H    0.177900
    78  H    0.149161
    79  H    0.236159
    80  H    0.171615
    81  H    0.172468
    82  H    0.145101
    83  H    0.170467
    84  H    0.185991
 Sum of Mulliken charges =  -0.00000
 Mulliken charges with hydrogens summed into heavy atoms:
               1
     1  N   -0.544498
     2  C    0.279785
     3  C    0.004621
     4  C    0.057652
     5  C    0.023697
     6  C    0.303049
     9  N   -0.417724
    10  C    0.200339
    11  C    0.061927
    12  C    0.105111
    13  C    0.007853
    14  C    0.175392
    18  Ir  -0.071316
    19  B    0.456108
    20  O   -0.520364
    21  O   -0.534047
    22  C    0.293253
    23  C    0.294541
    24  C   -0.015428
    28  C   -0.020469
    32  C   -0.026897
    36  C   -0.015439
    40  B    0.499061
    41  O   -0.496834
    42  O   -0.542196
    43  C    0.297604
    44  C    0.295636
    45  C   -0.016816
    46  C   -0.019925
    50  C   -0.029288
    54  C   -0.015760
    58  B    0.450789
    59  O   -0.496484
    60  O   -0.531984
    61  C    0.295729
    62  C    0.300424
    63  C   -0.008764
    67  C   -0.027738
    71  C   -0.024631
    75  C   -0.025968
 APT charges:
               1
     1  N   -0.344962
     2  C    0.085832
     3  C   -0.114461
     4  C    0.175109
     5  C   -0.222954
     6  C    0.273113
     7  H    0.036332
     8  H    0.075408
     9  N   -0.408720
    10  C    0.212792
    11  C   -0.175770
    12  C    0.109753
    13  C   -0.117438
    14  C    0.212903
    15  H    0.109492
    16  H    0.066813
    17  H    0.034422
    18  Ir  -0.492831
    19  B    1.233037
    20  O   -0.969656
    21  O   -1.000906
    22  C    0.500547
    23  C    0.518496
    24  C   -0.034234
    25  H    0.006747
    26  H    0.003191
    27  H   -0.022214
    28  C   -0.007000
    29  H   -0.017996
    30  H   -0.000546
    31  H    0.008547
    32  C   -0.011199
    33  H    0.000257
    34  H   -0.017748
    35  H   -0.003602
    36  C   -0.036794
    37  H   -0.028524
    38  H    0.017468
    39  H    0.000091
    40  B    1.279546
    41  O   -0.975684
    42  O   -1.062431
    43  C    0.510530
    44  C    0.523093
    45  C   -0.032250
    46  C   -0.008572
    47  H   -0.021812
    48  H    0.000989
    49  H    0.006409
    50  C   -0.016193
    51  H   -0.000500
    52  H   -0.017389
    53  H   -0.006080
    54  C   -0.050864
    55  H   -0.023882
    56  H    0.030424
    57  H   -0.001059
    58  B    1.151622
    59  O   -0.934115
    60  O   -0.950579
    61  C    0.489246
    62  C    0.479305
    63  C   -0.012463
    64  H   -0.003348
    65  H   -0.004303
    66  H   -0.028832
    67  C   -0.003902
    68  H   -0.017638
    69  H   -0.000271
    70  H   -0.001460
    71  C   -0.008717
    72  H    0.005149
    73  H   -0.017557
    74  H   -0.001701
    75  C   -0.034608
    76  H   -0.021433
    77  H    0.001584
    78  H   -0.001750
    79  H    0.126438
    80  H    0.001411
    81  H    0.003559
    82  H   -0.026581
    83  H   -0.004916
    84  H    0.028787
 Sum of APT charges =   0.00000
 APT charges with hydrogens summed into heavy atoms:
               1
     1  N   -0.344962
     2  C    0.212270
     3  C   -0.078129
     4  C    0.203896
     5  C   -0.147546
     6  C    0.273113
     9  N   -0.408720
    10  C    0.212792
    11  C   -0.066277
    12  C    0.176566
    13  C   -0.083016
    14  C    0.207987
    18  Ir  -0.492831
    19  B    1.233037
    20  O   -0.969656
    21  O   -1.000906
    22  C    0.500547
    23  C    0.518496
    24  C   -0.046510
    28  C   -0.016995
    32  C   -0.032291
    36  C   -0.047759
    40  B    1.279546
    41  O   -0.975684
    42  O   -1.062431
    43  C    0.510530
    44  C    0.523093
    45  C   -0.053862
    46  C   -0.022985
    50  C   -0.040161
    54  C   -0.045381
    58  B    1.151622
    59  O   -0.934115
    60  O   -0.950579
    61  C    0.489246
    62  C    0.479305
    63  C   -0.048946
    67  C   -0.023270
    71  C   -0.022827
    75  C   -0.056207
 Electronic spatial extent (au):  <R**2>=          18848.4567
 Charge=             -0.0000 electrons
 Dipole moment (field-independent basis, Debye):
    X=              2.6916    Y=              1.0367    Z=             -1.1544  Tot=              3.1068
 Quadrupole moment (field-independent basis, Debye-Ang):
   XX=           -231.8073   YY=           -224.3490   ZZ=           -253.5844
   XY=              4.4864   XZ=             -1.4656   YZ=             -2.6650
 Traceless Quadrupole moment (field-independent basis, Debye-Ang):
   XX=              4.7729   YY=             12.2312   ZZ=            -17.0042
   XY=              4.4864   XZ=             -1.4656   YZ=             -2.6650
 Octapole moment (field-independent basis, Debye-Ang**2):
  XXX=            111.7205  YYY=            108.0511  ZZZ=            -19.9572  XYY=             90.0683
  XXY=             49.1099  XXZ=            -17.5275  XZZ=            -11.9339  YZZ=             -5.7033
  YYZ=              0.6047  XYZ=            -21.2167
 Hexadecapole moment (field-independent basis, Debye-Ang**3):
 XXXX=         -10180.4427 YYYY=          -8813.9693 ZZZZ=          -5635.1050 XXXY=             78.4062
 XXXZ=            -15.6001 YYYX=            205.7479 YYYZ=            -62.4085 ZZZX=             19.3833
 ZZZY=            -11.0020 XXYY=          -2870.5543 XXZZ=          -2712.4195 YYZZ=          -2462.1698
 XXYZ=            -21.9693 YYXZ=            -42.4676 ZZXY=             21.5057
 N-N= 5.532342574360D+03 E-N=-1.530835568606D+04  KE= 1.750307760452D+03
  Exact polarizability:     428.912      -7.834     445.511      10.959      -5.002     315.499
 Approx polarizability:     610.116     -16.178     649.972      26.085      -4.487     471.888
   1 Symmetry operations used in ECPInt.
 ECPInt:  NShTT=   31878 NPrTT=  193976 LenC2=   25768 LenP2D=   82983.
 LDataN:  DoStor=T MaxTD1= 8 Len=  415
 Calling FoFJK, ICntrl=    100127 FMM=F ISym2X=0 I1Cent= 0 IOpClX= 0 NMat=1 NMatS=1 NMatT=0.
 Defaulting to unpruned grid for atomic number  77.
 Defaulting to unpruned grid for atomic number  77.
 Defaulting to unpruned grid for atomic number  77.
 Defaulting to unpruned grid for atomic number  77.
 Defaulting to unpruned grid for atomic number  77.
 Defaulting to unpruned grid for atomic number  77.
 Defaulting to unpruned grid for atomic number  77.
 Defaulting to unpruned grid for atomic number  77.
 Defaulting to unpruned grid for atomic number  77.
 Defaulting to unpruned grid for atomic number  77.
 Defaulting to unpruned grid for atomic number  77.
 Defaulting to unpruned grid for atomic number  77.
 Defaulting to unpruned grid for atomic number  77.
 Defaulting to unpruned grid for atomic number  77.
 Defaulting to unpruned grid for atomic number  77.
 Defaulting to unpruned grid for atomic number  77.
 Full mass-weighted force constant matrix:
 Low frequencies ---   -0.9683   -0.0006   -0.0004    0.0004    3.3888    9.6876
 Low frequencies ---   17.6946   24.6538   32.9873
 Diagonal vibrational polarizability:
       51.0464000      48.3944564     115.0629866
 Harmonic frequencies (cm**-1), IR intensities (KM/Mole), Raman scattering
 activities (A**4/AMU), depolarization ratios for plane and unpolarized
 incident light, reduced masses (AMU), force constants (mDyne/A),
 and normal coordinates:
                      1                      2                      3
                      A                      A                      A
 Frequencies --     17.6469                24.4811                32.9151
 Red. masses --      5.2871                 3.7851                 4.2787
 Frc consts  --      0.0010                 0.0013                 0.0027
 IR Inten    --      0.6439                 0.0210                 0.2984
  Atom AN      X      Y      Z        X      Y      Z        X      Y      Z
     1   7     0.01  -0.01   0.07    -0.02   0.00  -0.01     0.00  -0.02   0.03
     2   6     0.03  -0.00   0.13    -0.03   0.00  -0.04     0.01  -0.02   0.04
     3   6     0.04  -0.01   0.22    -0.04   0.01  -0.06     0.01  -0.02   0.00
     4   6     0.03  -0.03   0.26    -0.03   0.02  -0.05     0.01  -0.03  -0.05
     5   6     0.02  -0.03   0.19    -0.02   0.02  -0.02     0.01  -0.03  -0.07
     6   6     0.01  -0.02   0.10    -0.01   0.01  -0.00     0.00  -0.02  -0.03
     7   1     0.05  -0.01   0.27    -0.04   0.01  -0.08     0.02  -0.02   0.02
     8   1     0.01  -0.04   0.21    -0.02   0.03  -0.01     0.00  -0.03  -0.11
     9   7    -0.01  -0.06   0.03    -0.00   0.03   0.03     0.04  -0.02  -0.11
    10   6    -0.00  -0.02   0.04    -0.00   0.02   0.02     0.00  -0.02  -0.05
    11   6     0.00   0.01  -0.01     0.01   0.00   0.03    -0.02  -0.02  -0.01
    12   6     0.00  -0.00  -0.08     0.01   0.01   0.05     0.00  -0.02  -0.05
    13   6    -0.01  -0.04  -0.09     0.01   0.02   0.06     0.04  -0.02  -0.11
    14   6    -0.01  -0.06  -0.03     0.00   0.04   0.05     0.05  -0.02  -0.14
    15   1     0.01   0.04  -0.01     0.01  -0.01   0.02    -0.05  -0.02   0.03
    16   1     0.01   0.02  -0.12     0.02  -0.00   0.06    -0.01  -0.02  -0.02
    17   1    -0.01  -0.05  -0.14     0.02   0.03   0.08     0.06  -0.02  -0.14
    18  77    -0.02   0.01  -0.04     0.00  -0.01   0.02    -0.02   0.00   0.04
    19   5    -0.02  -0.01  -0.02     0.01  -0.00   0.00    -0.01   0.01   0.03
    20   8    -0.03  -0.03   0.01     0.01  -0.02   0.02    -0.01  -0.01   0.02
    21   8    -0.03  -0.01  -0.02     0.01   0.02  -0.01     0.00   0.02   0.02
    22   6    -0.05  -0.05   0.03     0.00   0.00   0.01     0.00  -0.01   0.01
    23   6    -0.04  -0.03   0.01     0.01   0.02  -0.02     0.02   0.01   0.01
    24   6    -0.09  -0.06   0.02    -0.01   0.03   0.03    -0.01  -0.01   0.02
    25   1    -0.10  -0.04  -0.00    -0.02   0.04   0.04    -0.02   0.02   0.03
    26   1    -0.09  -0.06   0.03    -0.02   0.01   0.05    -0.03  -0.02   0.01
    27   1    -0.10  -0.07   0.03    -0.01   0.04   0.03     0.01  -0.01   0.01
    28   6    -0.03  -0.07   0.07     0.01  -0.01   0.00     0.01  -0.03  -0.00
    29   1    -0.04  -0.08   0.08     0.01   0.01  -0.01     0.02  -0.03  -0.01
    30   1    -0.04  -0.08   0.08     0.01  -0.02   0.03    -0.00  -0.04   0.00
    31   1     0.00  -0.06   0.07     0.02  -0.03  -0.02     0.01  -0.04  -0.01
    32   6    -0.07  -0.03   0.00     0.01   0.06  -0.03     0.03   0.02   0.01
    33   1    -0.09  -0.03  -0.01    -0.01   0.07  -0.01     0.02   0.03   0.02
    34   1    -0.07  -0.05   0.03     0.01   0.06  -0.03     0.04   0.01   0.00
    35   1    -0.06  -0.02  -0.01     0.01   0.07  -0.05     0.04   0.04   0.01
    36   6     0.00  -0.03   0.02     0.03   0.00  -0.05     0.03  -0.00  -0.00
    37   1    -0.00  -0.04   0.04     0.03   0.01  -0.06     0.04  -0.01  -0.01
    38   1     0.03  -0.02   0.02     0.03  -0.02  -0.05     0.03  -0.01  -0.00
    39   1     0.01  -0.01  -0.00     0.03   0.01  -0.07     0.04   0.01  -0.01
    40   5    -0.01   0.01  -0.04    -0.00   0.00  -0.00    -0.01   0.02   0.03
    41   8     0.01   0.03  -0.00     0.04   0.05   0.07    -0.04   0.04   0.00
    42   8    -0.03  -0.00  -0.08    -0.03  -0.03  -0.09     0.03   0.03   0.02
    43   6     0.02   0.04  -0.01     0.06   0.08   0.04    -0.03   0.05  -0.03
    44   6    -0.02   0.00  -0.05    -0.01  -0.01  -0.04     0.02   0.04  -0.02
    45   6     0.06   0.09  -0.05     0.15   0.17  -0.03    -0.07   0.05  -0.02
    46   6     0.02   0.05   0.05     0.06   0.10   0.17    -0.04   0.07  -0.08
    47   1     0.02   0.05   0.04     0.08   0.11   0.14    -0.03   0.08  -0.10
    48   1     0.05   0.08   0.07     0.11   0.17   0.22    -0.08   0.08  -0.08
    49   1    -0.01   0.02   0.07     0.00   0.04   0.23    -0.02   0.07  -0.08
    50   6    -0.01   0.01  -0.10     0.00   0.01  -0.14     0.03   0.05  -0.03
    51   1     0.01   0.04  -0.13     0.05   0.07  -0.21     0.01   0.04  -0.00
    52   1    -0.01   0.02  -0.08     0.02   0.03  -0.10     0.03   0.06  -0.07
    53   1    -0.04  -0.02  -0.13    -0.05  -0.06  -0.20     0.08   0.04  -0.02
    54   6    -0.05  -0.04  -0.02    -0.08  -0.10   0.04     0.06   0.05  -0.05
    55   1    -0.05  -0.04   0.00    -0.07  -0.08   0.07     0.06   0.07  -0.09
    56   1    -0.06  -0.05   0.02    -0.10  -0.11   0.11     0.05   0.05  -0.04
    57   1    -0.08  -0.07  -0.05    -0.13  -0.16  -0.03     0.10   0.04  -0.04
    58   5     0.02   0.01  -0.03    -0.01  -0.02  -0.00    -0.03  -0.00   0.02
    59   8     0.02   0.03  -0.03    -0.03  -0.05  -0.01    -0.11  -0.01   0.01
    60   8     0.04   0.01  -0.01     0.01  -0.02  -0.02     0.06  -0.00   0.02
    61   6     0.05   0.02  -0.01    -0.03  -0.06  -0.03    -0.05  -0.05  -0.02
    62   6     0.07   0.02  -0.00    -0.01  -0.04  -0.03     0.07  -0.01   0.02
    63   6     0.05  -0.01   0.00    -0.03  -0.06  -0.05    -0.05  -0.15  -0.09
    64   1     0.04  -0.03   0.00    -0.01  -0.06  -0.05    -0.00  -0.17  -0.10
    65   1     0.03  -0.01  -0.01    -0.04  -0.07  -0.05    -0.13  -0.17  -0.12
    66   1     0.07  -0.02   0.02    -0.03  -0.07  -0.06    -0.01  -0.18  -0.11
    67   6     0.07   0.05  -0.01    -0.05  -0.07  -0.03    -0.11  -0.02   0.00
    68   1     0.09   0.04   0.01    -0.05  -0.08  -0.05    -0.06  -0.05  -0.01
    69   1     0.05   0.04  -0.01    -0.07  -0.09  -0.02    -0.20  -0.06  -0.03
    70   1     0.07   0.07  -0.02    -0.05  -0.07  -0.01    -0.13   0.05   0.05
    71   6     0.09   0.00   0.02     0.00  -0.04  -0.06     0.17  -0.07  -0.01
    72   1     0.08  -0.02   0.03     0.01  -0.04  -0.07     0.18  -0.15  -0.06
    73   1     0.11   0.01   0.03    -0.01  -0.06  -0.07     0.17  -0.07  -0.01
    74   1     0.10   0.01   0.03     0.02  -0.03  -0.07     0.26  -0.04   0.02
    75   6     0.08   0.06  -0.01    -0.01  -0.04  -0.02     0.08   0.11   0.08
    76   1     0.10   0.08   0.00    -0.03  -0.05  -0.02     0.09   0.12   0.09
    77   1     0.06   0.08  -0.03    -0.02  -0.04   0.01     0.00   0.15   0.09
    78   1     0.08   0.06  -0.00     0.00  -0.03  -0.01     0.15   0.13   0.11
    79   1     0.03   0.01   0.10    -0.03  -0.01  -0.05     0.01  -0.01   0.08
    80   1     0.06   0.08  -0.09     0.15   0.15  -0.12    -0.06   0.04   0.02
    81   1     0.08   0.11  -0.02     0.19   0.22   0.03    -0.10   0.05  -0.01
    82   1     0.07   0.10  -0.05     0.17   0.19  -0.05    -0.07   0.06  -0.04
    83   1    -0.02  -0.09  -0.03     0.00   0.05   0.06     0.08  -0.03  -0.19
    84   1     0.04  -0.03   0.33    -0.04   0.03  -0.07     0.01  -0.03  -0.08
                      4                      5                      6
                      A                      A                      A
 Frequencies --     39.7417                42.1941                51.3794
 Red. masses --      4.5148                 3.6009                 5.1899
 Frc consts  --      0.0042                 0.0038                 0.0081
 IR Inten    --      0.0010                 0.0567                 0.8816
  Atom AN      X      Y      Z        X      Y      Z        X      Y      Z
     1   7    -0.01   0.01  -0.03    -0.02  -0.01  -0.01     0.04  -0.02   0.01
     2   6    -0.01   0.01  -0.08    -0.02  -0.01  -0.03     0.08  -0.01  -0.03
     3   6    -0.00   0.01  -0.08    -0.02  -0.01  -0.03     0.11  -0.05  -0.09
     4   6    -0.01   0.01  -0.03    -0.02  -0.01  -0.00     0.10  -0.10  -0.11
     5   6    -0.01   0.01   0.03    -0.02  -0.00   0.02     0.05  -0.10  -0.06
     6   6    -0.01   0.01   0.02    -0.01  -0.01   0.01     0.02  -0.07  -0.01
     7   1    -0.00   0.01  -0.13    -0.02  -0.01  -0.05     0.15  -0.04  -0.13
     8   1    -0.01   0.01   0.08    -0.02  -0.00   0.04     0.04  -0.14  -0.07
     9   7    -0.07   0.01   0.15    -0.03   0.00   0.06    -0.07  -0.11   0.06
    10   6    -0.02   0.01   0.07    -0.01  -0.01   0.03    -0.03  -0.08   0.02
    11   6     0.01   0.01   0.02     0.00  -0.01   0.02    -0.04  -0.04  -0.02
    12   6    -0.01   0.01   0.05     0.00  -0.01   0.02    -0.08  -0.05  -0.02
    13   6    -0.07   0.01   0.13    -0.01  -0.00   0.05    -0.12  -0.09   0.01
    14   6    -0.10   0.01   0.19    -0.02   0.00   0.07    -0.11  -0.12   0.06
    15   1     0.05   0.01  -0.04     0.01  -0.02   0.00    -0.01  -0.01  -0.03
    16   1     0.01   0.01   0.01     0.01  -0.01   0.01    -0.08  -0.03  -0.06
    17   1    -0.08   0.01   0.16    -0.00  -0.00   0.05    -0.15  -0.09   0.01
    18  77     0.00  -0.00  -0.03    -0.01  -0.01  -0.01    -0.01   0.04   0.01
    19   5    -0.02  -0.00  -0.01    -0.01  -0.01  -0.01     0.00   0.04  -0.00
    20   8    -0.02  -0.03   0.03    -0.01   0.06  -0.04     0.00  -0.01  -0.01
    21   8    -0.03   0.02  -0.04    -0.03  -0.05   0.02     0.04   0.07  -0.02
    22   6    -0.05  -0.04   0.05     0.01   0.08  -0.06     0.03   0.00  -0.02
    23   6    -0.03   0.00  -0.01    -0.05  -0.00   0.01     0.06   0.05  -0.04
    24   6    -0.14  -0.04   0.06     0.14   0.08  -0.08    -0.01   0.02   0.00
    25   1    -0.16   0.01   0.03     0.18  -0.01  -0.05    -0.02   0.06   0.02
    26   1    -0.16  -0.07   0.10     0.19   0.14  -0.11    -0.04  -0.01   0.02
    27   1    -0.16  -0.04   0.08     0.14   0.10  -0.08     0.02   0.03  -0.01
    28   6    -0.02  -0.09   0.11    -0.05   0.18  -0.12     0.05  -0.05  -0.04
    29   1    -0.04  -0.09   0.12    -0.04   0.19  -0.13     0.07  -0.04  -0.05
    30   1    -0.03  -0.12   0.15    -0.01   0.23  -0.16     0.02  -0.08  -0.03
    31   1     0.05  -0.10   0.10    -0.14   0.19  -0.11     0.07  -0.06  -0.06
    32   6    -0.07   0.04  -0.02    -0.02  -0.07   0.03     0.08   0.09  -0.05
    33   1    -0.12   0.06  -0.02     0.05  -0.11   0.00     0.05   0.12  -0.02
    34   1    -0.08   0.02   0.00    -0.04  -0.02   0.02     0.10   0.07  -0.06
    35   1    -0.05   0.07  -0.07    -0.07  -0.13   0.07     0.11   0.13  -0.06
    36   6     0.04  -0.02  -0.03    -0.15   0.04   0.06     0.10   0.02  -0.07
    37   1     0.04  -0.03  -0.01    -0.17   0.06   0.05     0.11   0.02  -0.08
    38   1     0.08  -0.05  -0.02    -0.18   0.09   0.04     0.10  -0.01  -0.07
    39   1     0.05   0.01  -0.08    -0.17  -0.01   0.11     0.11   0.05  -0.09
    40   5     0.03   0.01  -0.00    -0.01  -0.01  -0.02    -0.03   0.02   0.01
    41   8     0.01   0.00  -0.03    -0.00  -0.02  -0.01    -0.00  -0.01   0.03
    42   8     0.06   0.03   0.05    -0.02  -0.01  -0.02    -0.08   0.00  -0.00
    43   6     0.02   0.01  -0.00     0.01  -0.01   0.02    -0.04  -0.04   0.03
    44   6     0.06   0.05   0.04    -0.01  -0.01   0.02    -0.09  -0.04   0.01
    45   6     0.00  -0.05   0.03     0.05  -0.02   0.01    -0.03  -0.01   0.02
    46   6     0.01   0.03  -0.05     0.01   0.00   0.05    -0.02  -0.09   0.06
    47   1     0.02   0.04  -0.04     0.02   0.01   0.07    -0.05  -0.11   0.06
    48   1    -0.02  -0.00  -0.08     0.03  -0.00   0.05     0.02  -0.08   0.07
    49   1     0.02   0.06  -0.08    -0.02   0.01   0.05    -0.01  -0.11   0.07
    50   6     0.08   0.04   0.09     0.01  -0.01   0.03    -0.14  -0.04  -0.00
    51   1     0.07  -0.01   0.12     0.03  -0.02   0.01    -0.14  -0.00  -0.02
    52   1     0.08   0.04   0.08     0.01  -0.00   0.05    -0.15  -0.09   0.01
    53   1     0.12   0.07   0.12    -0.01  -0.00   0.03    -0.19  -0.05  -0.02
    54   6     0.09   0.10   0.00    -0.04   0.01   0.03    -0.10  -0.09   0.03
    55   1     0.09   0.11  -0.01    -0.04   0.01   0.06    -0.10  -0.13   0.05
    56   1     0.08   0.11  -0.04    -0.05   0.01   0.02    -0.06  -0.09   0.05
    57   1     0.11   0.13   0.03    -0.06   0.02   0.03    -0.13  -0.09   0.02
    58   5     0.01  -0.01  -0.03     0.01  -0.01  -0.01     0.01   0.04   0.01
    59   8    -0.03  -0.01  -0.04    -0.01   0.00  -0.01     0.01   0.04   0.02
    60   8     0.05  -0.01  -0.02     0.06  -0.01   0.01     0.03   0.04   0.01
    61   6    -0.00  -0.02  -0.04     0.03  -0.01  -0.00     0.03   0.03   0.01
    62   6     0.05  -0.01  -0.02     0.08   0.00   0.02     0.05   0.04   0.01
    63   6     0.00  -0.07  -0.07     0.03  -0.07  -0.02     0.03   0.00   0.01
    64   1     0.02  -0.09  -0.07     0.04  -0.08  -0.03     0.03  -0.00   0.01
    65   1    -0.04  -0.08  -0.09    -0.02  -0.09  -0.03     0.02  -0.01   0.02
    66   1     0.02  -0.09  -0.07     0.05  -0.09  -0.03     0.05  -0.01   0.01
    67   6    -0.02  -0.01  -0.03     0.01   0.02   0.01     0.04   0.03   0.01
    68   1     0.00  -0.01  -0.03     0.05   0.02   0.02     0.06   0.02   0.01
    69   1    -0.06  -0.02  -0.05    -0.02   0.01  -0.01     0.03   0.02   0.01
    70   1    -0.03   0.03  -0.01     0.01   0.07   0.02     0.04   0.05   0.01
    71   6     0.10  -0.04  -0.03     0.15  -0.04   0.04     0.07   0.02   0.01
    72   1     0.10  -0.07  -0.05     0.15  -0.10   0.01     0.07   0.01   0.00
    73   1     0.10  -0.04  -0.03     0.15  -0.02   0.05     0.08   0.02   0.01
    74   1     0.13  -0.02  -0.02     0.19  -0.04   0.07     0.09   0.03   0.01
    75   6     0.05   0.04   0.01     0.10   0.08   0.05     0.06   0.07   0.01
    76   1     0.05   0.05   0.02     0.11   0.10   0.06     0.07   0.07   0.01
    77   1     0.02   0.06   0.02     0.05   0.11   0.04     0.04   0.08   0.00
    78   1     0.09   0.04   0.03     0.13   0.08   0.06     0.06   0.07   0.01
    79   1    -0.01   0.01  -0.12    -0.02  -0.01  -0.05     0.09   0.02  -0.02
    80   1     0.01  -0.07   0.06     0.05  -0.03  -0.01    -0.05   0.03  -0.01
    81   1    -0.02  -0.08  -0.00     0.06  -0.03   0.00     0.01  -0.01   0.02
    82   1     0.01  -0.06   0.05     0.06  -0.02   0.03    -0.06  -0.03   0.02
    83   1    -0.14   0.01   0.27    -0.04   0.01   0.09    -0.14  -0.14   0.10
    84   1    -0.00   0.01  -0.02    -0.02  -0.00   0.00     0.12  -0.12  -0.15
                      7                      8                      9
                      A                      A                      A
 Frequencies --     55.0596                59.1231                66.0927
 Red. masses --      3.9927                 5.6220                 4.5756
 Frc consts  --      0.0071                 0.0116                 0.0118
 IR Inten    --      0.1452                 1.0335                 0.1005
  Atom AN      X      Y      Z        X      Y      Z        X      Y      Z
     1   7     0.01  -0.00   0.02     0.07  -0.04   0.08     0.02   0.02  -0.04
     2   6     0.01  -0.00  -0.01     0.06  -0.04   0.05     0.01   0.02  -0.02
     3   6     0.01  -0.01  -0.04     0.06  -0.03  -0.02     0.01   0.02   0.02
     4   6     0.01  -0.01  -0.04     0.06  -0.03  -0.07     0.01   0.03   0.04
     5   6     0.01  -0.01  -0.01     0.07  -0.02  -0.03     0.01   0.03   0.01
     6   6     0.00  -0.01   0.02     0.07  -0.03   0.04     0.02   0.02  -0.03
     7   1     0.02  -0.01  -0.06     0.05  -0.04  -0.05     0.00   0.02   0.04
     8   1     0.01  -0.01  -0.00     0.07  -0.02  -0.06     0.02   0.03   0.02
     9   7     0.00  -0.01   0.04     0.17   0.01  -0.04    -0.02   0.01   0.01
    10   6    -0.00  -0.01   0.04     0.10  -0.03   0.07     0.01   0.02  -0.04
    11   6    -0.00  -0.01   0.04     0.05  -0.06   0.20     0.03   0.04  -0.09
    12   6    -0.00  -0.01   0.04     0.09  -0.05   0.22     0.00   0.03  -0.08
    13   6     0.00  -0.01   0.04     0.18  -0.01   0.11    -0.04   0.02  -0.03
    14   6     0.00  -0.01   0.04     0.21   0.02  -0.02    -0.05   0.00   0.01
    15   1    -0.00  -0.01   0.04    -0.00  -0.10   0.23     0.05   0.06  -0.10
    16   1    -0.01  -0.01   0.04     0.05  -0.07   0.31     0.01   0.04  -0.12
    17   1     0.00  -0.01   0.04     0.21  -0.00   0.11    -0.06   0.01  -0.02
    18  77    -0.00   0.01   0.02    -0.01   0.02  -0.03     0.05  -0.01   0.01
    19   5    -0.02   0.02   0.02    -0.03   0.02  -0.02     0.03   0.01   0.01
    20   8    -0.02   0.04   0.03    -0.03   0.03   0.00     0.03   0.05   0.06
    21   8    -0.03   0.01   0.02    -0.05   0.01  -0.01    -0.03   0.02  -0.01
    22   6    -0.03   0.04   0.03    -0.05   0.01   0.02    -0.03   0.07   0.07
    23   6    -0.05   0.03   0.03    -0.06   0.01   0.01    -0.06   0.05   0.02
    24   6    -0.02   0.04   0.02    -0.09  -0.01   0.01    -0.05   0.07   0.08
    25   1    -0.01   0.04   0.03    -0.10  -0.00  -0.03    -0.05   0.07   0.06
    26   1    -0.02   0.04   0.01    -0.09  -0.01   0.02    -0.04   0.07   0.09
    27   1    -0.00   0.03   0.02    -0.12  -0.02   0.03    -0.07   0.07   0.08
    28   6    -0.04   0.07   0.04    -0.05   0.01   0.07    -0.03   0.10   0.12
    29   1    -0.05   0.07   0.04    -0.07  -0.01   0.09    -0.08   0.11   0.13
    30   1    -0.03   0.08   0.03    -0.04   0.01   0.08    -0.01   0.11   0.15
    31   1    -0.05   0.07   0.04    -0.02   0.02   0.08    -0.02   0.09   0.12
    32   6    -0.05   0.02   0.03    -0.09   0.01   0.00    -0.12   0.05   0.01
    33   1    -0.04   0.01   0.03    -0.10   0.00  -0.01    -0.12   0.05   0.01
    34   1    -0.06   0.03   0.03    -0.10   0.00   0.02    -0.16   0.08   0.04
    35   1    -0.07   0.00   0.03    -0.09   0.01  -0.01    -0.15   0.03  -0.03
    36   6    -0.06   0.03   0.03    -0.04   0.01   0.01    -0.06   0.05   0.02
    37   1    -0.07   0.04   0.03    -0.05   0.01   0.03    -0.09   0.07   0.05
    38   1    -0.07   0.04   0.03    -0.02   0.01   0.01    -0.02   0.05   0.03
    39   1    -0.07   0.02   0.04    -0.04   0.01  -0.00    -0.07   0.03  -0.02
    40   5    -0.00   0.02   0.01    -0.02   0.01  -0.03     0.03  -0.02  -0.01
    41   8    -0.01   0.04   0.01    -0.01  -0.02  -0.02     0.05  -0.04   0.00
    42   8     0.00   0.00  -0.02    -0.06   0.01  -0.02    -0.02  -0.04  -0.04
    43   6    -0.05   0.03  -0.07    -0.02  -0.04   0.01    -0.01  -0.07  -0.04
    44   6    -0.01   0.00  -0.08    -0.06  -0.02   0.02    -0.03  -0.08  -0.05
    45   6    -0.15   0.08  -0.06    -0.01  -0.06   0.01    -0.06  -0.02  -0.04
    46   6    -0.04  -0.01  -0.14    -0.01  -0.07   0.03     0.01  -0.14  -0.05
    47   1    -0.07  -0.03  -0.19    -0.03  -0.08   0.05    -0.03  -0.18  -0.10
    48   1    -0.07  -0.00  -0.13     0.02  -0.08   0.02     0.03  -0.12  -0.04
    49   1     0.02  -0.04  -0.14    -0.01  -0.07   0.02     0.07  -0.19  -0.04
    50   6    -0.02   0.01  -0.11    -0.07  -0.02   0.04    -0.07  -0.08  -0.07
    51   1    -0.05   0.03  -0.09    -0.06  -0.03   0.03    -0.08  -0.04  -0.08
    52   1    -0.03   0.02  -0.16    -0.07  -0.05   0.07    -0.08  -0.10  -0.08
    53   1     0.02  -0.01  -0.12    -0.10  -0.00   0.05    -0.09  -0.09  -0.09
    54   6     0.04  -0.02  -0.10    -0.08  -0.01   0.03    -0.02  -0.12  -0.04
    55   1     0.04  -0.01  -0.15    -0.08  -0.03   0.06    -0.02  -0.13  -0.05
    56   1     0.04  -0.02  -0.06    -0.07  -0.00   0.01    -0.01  -0.12   0.00
    57   1     0.08  -0.05  -0.10    -0.11   0.01   0.03    -0.02  -0.14  -0.06
    58   5     0.02  -0.02   0.00    -0.01   0.02  -0.03     0.03  -0.01   0.01
    59   8     0.07  -0.05   0.01    -0.04   0.02  -0.04    -0.03   0.01  -0.00
    60   8    -0.00  -0.01  -0.04     0.00   0.02  -0.03     0.05  -0.01   0.02
    61   6     0.09  -0.07   0.01    -0.03   0.02  -0.04    -0.06   0.01  -0.02
    62   6     0.04  -0.04  -0.06    -0.01   0.02  -0.03    -0.01   0.00   0.03
    63   6     0.08  -0.05   0.08    -0.03   0.00  -0.06    -0.05   0.01  -0.09
    64   1     0.04  -0.02   0.09    -0.02   0.01  -0.06    -0.01   0.01  -0.09
    65   1     0.11  -0.06   0.11    -0.05  -0.01  -0.06    -0.08   0.01  -0.10
    66   1     0.09  -0.05   0.08    -0.03  -0.01  -0.08    -0.07   0.01  -0.11
    67   6     0.16  -0.11  -0.02    -0.06   0.02  -0.04    -0.14   0.03   0.01
    68   1     0.18  -0.13  -0.03    -0.05   0.02  -0.04    -0.17   0.04  -0.00
    69   1     0.19  -0.14   0.04    -0.07   0.02  -0.05    -0.17   0.04  -0.03
    70   1     0.17  -0.12  -0.07    -0.06   0.03  -0.02    -0.15   0.03   0.06
    71   6     0.02  -0.03  -0.06     0.01   0.01  -0.04     0.00  -0.00   0.01
    72   1    -0.00  -0.00  -0.01     0.01   0.00  -0.05     0.02  -0.01  -0.04
    73   1     0.05  -0.06  -0.07     0.01   0.01  -0.05    -0.04   0.01   0.01
    74   1    -0.02  -0.01  -0.11     0.02   0.02  -0.04     0.04  -0.01   0.04
    75   6     0.05  -0.08  -0.13    -0.01   0.04  -0.01    -0.03   0.02   0.11
    76   1     0.08  -0.10  -0.15    -0.02   0.04  -0.01    -0.07   0.03   0.12
    77   1     0.08  -0.09  -0.13    -0.03   0.04  -0.00    -0.05   0.02   0.12
    78   1     0.01  -0.06  -0.17     0.01   0.04  -0.00     0.01   0.01   0.14
    79   1     0.01   0.00  -0.01     0.06  -0.04   0.07     0.01   0.01  -0.03
    80   1    -0.15   0.09  -0.01    -0.02  -0.03  -0.00    -0.08   0.02  -0.02
    81   1    -0.19   0.11  -0.03     0.02  -0.07  -0.00    -0.04  -0.01  -0.02
    82   1    -0.18   0.08  -0.14    -0.02  -0.08   0.04    -0.11  -0.05  -0.07
    83   1     0.00  -0.01   0.04     0.28   0.05  -0.12    -0.08  -0.01   0.05
    84   1     0.02  -0.01  -0.06     0.06  -0.02  -0.13     0.01   0.03   0.07
                     10                     11                     12
                      A                      A                      A
 Frequencies --     70.7208                85.3888                96.4664
 Red. masses --      4.1510                 4.3625                 4.7053
 Frc consts  --      0.0122                 0.0187                 0.0258
 IR Inten    --      0.2020                 0.7432                 0.9235
  Atom AN      X      Y      Z        X      Y      Z        X      Y      Z
     1   7    -0.02  -0.03  -0.01     0.02   0.02   0.15    -0.02  -0.00  -0.08
     2   6    -0.04  -0.03  -0.01     0.02   0.03   0.28    -0.01   0.00  -0.04
     3   6    -0.05  -0.01   0.01     0.01   0.03   0.18    -0.01  -0.00   0.05
     4   6    -0.05   0.01   0.02     0.02   0.02  -0.11    -0.01  -0.01   0.09
     5   6    -0.03   0.01   0.02     0.02   0.02  -0.23    -0.02  -0.01   0.04
     6   6    -0.01  -0.01   0.01     0.02   0.03  -0.07    -0.02  -0.01  -0.04
     7   1    -0.07  -0.02   0.01     0.01   0.03   0.30    -0.01   0.00   0.09
     8   1    -0.02   0.03   0.03     0.03   0.02  -0.43    -0.02  -0.02   0.07
[...]
 -0.00000301,-0.00000253,0.00000082,0.00000493,-0.00000007,0.00000269,0
 .00001327,0.00000500,0.00018231,-0.00000627,0.00003997,-0.00010546,0.0
 0003070,0.00005469,-0.00010778,0.00004061,0.00001385,0.00001744,-0.000
 03321,-0.00002210,0.00004957,-0.00001506,-0.00001369,0.00000057,0.0000
 0619,0.00000186,-0.00000259,0.00000524,0.00000192,-0.00000482,0.000001
 92,0.00000047,-0.00000128,-0.00000295,0.00000355,0.00000253,-0.0000001
 2,-0.00000105,-0.00000591,0.00000208,0.00000088,0.00000293,-0.00000053
 ,-0.00000238,-0.00000584,0.00000276,0.00000166,0.00000332,-0.00000088,
 0.00000079,-0.00000872,0.00000120,0.00000250,-0.00000739,0.00000146,-0
 .00000148,0.00000454,-0.00000083,0.00000011,0.00000307,-0.00000172,0.0
 0000129,0.00006688,0.00011974,-0.00019646,-0.00002328,-0.00008201,0.00
 015539,-0.00006033,-0.00010936,0.00015864,0.00002464,0.00006127,-0.000
 03028,-0.00003605,0.00010466,-0.00012933,-0.00000318,-0.00001195,0.000
 00399,0.00000801,0.00000403,0.00000585,0.00000366,0.00000178,-0.000003
 92,-0.00000620,-0.00000540,0.00000230,-0.00002154,-0.00000312,0.000003
 31,-0.00000153,-0.00000523,0.00000617,0.00000441,0.00000129,0.00000200
 ,0.00000671,0.00000483,0.00000267,0.00002119,-0.00001981,0.00001429,0.
 00001148,0.00000630,0.00000111,-0.00000786,-0.00000754,0.00000954,-0.0
 0000307,0.00000610,-0.00000792,0.00006137,-0.00006407,0.00001097,-0.00
 002200,-0.00001482,0.00002883,-0.00003332,0.00003824,-0.00002289,-0.00
 000854,0.00002423,-0.00002558,0.00001883,0.00001445,-0.00000594,-0.000
 00089,-0.00000170,-0.00000474,-0.00000141,-0.00000405,0.00000153,-0.00
 000267,0.00000433,0.00000297,0.25422650,0.00019088,-0.00043554,-0.0000
 0452,0.00004433,-0.00005326,-0.00006521,0.00006960,-0.00002643,0.00000
 653,-0.00004209,0.00006300,-0.00002520,-0.00000553,-0.00016590,-0.0000
 1104,0.00082952,0.00069706,0.00050376,0.00000098,-0.00000903,0.0000105
 5,0.00005128,0.00002325,0.00002902,0.03046605,-0.01997860,0.01757233,0
 .00152925,-0.00404715,0.00100031,0.00022036,-0.00087831,0.00019470,-0.
 00297113,-0.00311193,-0.00132912,-0.01775287,0.00986498,-0.01016830,0.
 05304009,-0.06871668,0.03052124,0.00011878,0.00021455,0.00005601,-0.00
 082438,0.00045559,-0.00067334,0.00071064,0.00048266,0.00029208,-0.0000
 7753,-0.00001809,0.00001805,-0.00006430,-0.00009717,-0.00009529,0.0000
 4388,0.00003294,0.00003985,0.00001551,0.00007880,0.00005903,-0.0000049
 7,-0.00001240,-0.00002346,-0.00001073,-0.00001622,-0.00000380,-0.00000
 221,0.00000211,0.00000471,0.00000073,-0.00000065,-0.00000284,-0.000001
 47,0.00000043,-0.00000135,0.00000179,0.00000052,0.00000303,0.00000031,
 0.00000216,0.00000364,0.00000242,0.00000143,0.00000159,-0.00000092,-0.
 00000024,-0.00000077,0.00000026,-0.00000004,-0.00000139,0.00000427,-0.
 00000094,0.00000003,-0.00000043,0.00000015,-0.00000186,-0.00000031,0.0
 0000173,0.00000181,-0.00000174,0.00000310,0.00000331,0.00001343,-0.000
 00364,0.00000068,-0.00000219,0.00000445,-0.00000079,-0.00000061,-0.000
 00132,0.00000006,-0.00000102,0.00000716,0.00000346,-0.00008504,0.00003
 219,0.00004064,0.00005781,-0.00001331,-0.00003448,0.00006049,-0.000022
 54,-0.00001390,-0.00001166,0.00001821,0.00001012,-0.00003734,0.0000114
 3,0.00000496,0.00000042,-0.00000360,-0.00000175,0.00000091,-0.00000193
 ,-0.00000250,0.00000248,-0.00000120,-0.00000008,0.00000089,0.00000181,
 -0.00000163,-0.00000121,0.00000006,0.00000053,0.00000443,-0.00000176,-
 0.00000013,-0.00000190,0.00000083,0.00000205,0.00000377,-0.00000159,-0
 .00000108,-0.00000249,0.00000077,-0.00000075,0.00000494,-0.00000116,-0
 .00000042,0.00000442,-0.00000066,0.00000078,-0.00000238,0.00000031,-0.
 00000065,-0.00000221,0.00000081,-0.00000105,-0.00001871,-0.00014504,0.
 00007386,0.00001448,0.00005301,-0.00005782,-0.00000969,0.00008341,-0.0
 0000787,-0.00000743,-0.00002649,0.00001450,-0.00000094,-0.00000438,0.0
 0000497,0.00000171,0.00000415,-0.00000242,-0.00000229,-0.00000269,-0.0
 0000108,-0.00000088,-0.00000108,0.00000222,0.00000252,0.00000245,-0.00
 000089,0.00000517,0.00000455,-0.00000083,-0.00000126,0.00000130,-0.000
 00293,0.00000116,-0.00000141,0.00000062,-0.00000188,0.00000177,0.00000
 047,-0.00000146,0.00000030,-0.00000386,-0.00000042,-0.00000154,-0.0000
 0006,-0.00000017,0.00000260,0.00000085,-0.00000008,0.00000396,-0.00000
 059,0.00001811,0.00000777,-0.00000073,-0.00000851,0.00000144,0.0000051
 0,-0.00000099,-0.00000601,0.00000070,-0.00000582,0.00000831,-0.0000120
 5,-0.00001226,-0.00003825,0.00000014,0.00000038,0.00000076,0.00000343,
 0.00000091,0.00000246,-0.00000069,0.00000150,-0.00000262,-0.00000176,-
 0.06555545,0.08569808,0.00000997,0.00025298,-0.00006143,0.00001256,0.0
 0004280,-0.00002185,-0.00001787,0.00000901,0.00000530,-0.00003486,-0.0
 0000788,-0.00000468,0.00002318,0.00007547,-0.00005784,-0.00034349,0.00
 002337,0.00043520,-0.00000319,0.00001024,-0.00000040,-0.00006592,-0.00
 004494,0.00000459,0.00097210,0.00361175,-0.00356404,-0.00363101,-0.000
 35513,0.00856803,0.00025961,0.00011681,-0.00049286,-0.00358268,-0.0016
 9891,0.00519192,-0.00988583,0.00402510,0.00107226,-0.11620215,0.031950
 41,-0.10767703,0.00106092,-0.00015879,-0.00120448,0.00001023,0.0002353
 9,-0.00067826,0.00142430,-0.00020807,-0.00206079,-0.00002980,0.0000530
 4,0.00025159,0.00006974,0.00004002,0.00002950,-0.00006849,-0.00001774,
 -0.00003275,-0.00006310,-0.00001556,-0.00003014,0.00001021,0.00000420,
 0.00002557,0.00004054,0.00003086,0.00002927,-0.00000014,0.00000104,-0.
 00000284,0.00000023,-0.00000161,0.00000349,-0.00000086,0.00000159,0.00
 000125,-0.00000199,-0.00000127,-0.00000410,-0.00000267,0.00000183,-0.0
 0000190,-0.00000190,-0.00000220,-0.00000238,-0.00000209,0.00000174,0.0
 0000137,0.00000178,0.00000016,0.00000032,-0.00000218,-0.00000312,-0.00
 000390,0.00000166,0.00000129,0.00000160,-0.00000534,-0.00000153,-0.000
 00297,0.00000265,0.00000218,0.00000388,0.00000157,-0.00000710,-0.00000
 301,-0.00000774,-0.00000289,-0.00000235,0.00000381,0.00000187,-0.00000
 040,0.00000162,0.00000758,0.00000423,0.00008666,-0.00010915,-0.0001773
 2,-0.00003665,0.00000888,0.00002982,-0.00004103,0.00005533,0.00001741,
 0.00001822,-0.00001765,-0.00000272,0.00003712,-0.00000764,-0.00000065,
 -0.00000170,0.00000298,0.00000136,-0.00000093,-0.00000141,0.00000158,-
 0.00000171,0.00000240,0.00000005,0.00000037,-0.00000169,0.00000047,0.0
 0000163,-0.00000069,-0.00000022,-0.00000432,0.00000136,0.00000126,0.00
 000128,-0.00000090,-0.00000043,-0.00000289,0.00000211,0.00000096,0.000
 00162,0.00000002,-0.00000105,-0.00000245,-0.00000118,0.00000047,-0.000
 00398,0.00000120,0.00000020,0.00000366,-0.00000071,0.00000011,0.000002
 53,-0.00000107,-0.00000010,0.00002625,0.00001943,-0.00005700,-0.000022
 57,-0.00002314,0.00005311,-0.00004572,-0.00002796,0.00005300,0.0000129
 7,0.00001486,-0.00000808,0.00001567,0.00002582,-0.00003704,-0.00000231
 ,-0.00000078,0.00000033,0.00000223,0.00000040,0.00000018,-0.00000049,0
 .00000234,0.00000058,-0.00000278,-0.00000323,0.00000161,0.00000036,0.0
 0000182,0.00000251,-0.00000080,-0.00000296,0.00000118,-0.00000143,0.00
 000229,0.00000181,-0.00000003,-0.00000014,-0.00000234,-0.00000279,-0.0
 0000171,0.00000147,-0.00000195,-0.00000006,-0.00000174,-0.00000161,-0.
 00000218,0.00000446,0.00000187,0.00000341,-0.00000272,0.00000114,-0.00
 000275,0.00001348,-0.00000340,-0.00000051,0.00000956,0.00000393,-0.000
 00465,-0.00000551,-0.00000135,0.00001157,-0.00001399,-0.00000277,0.000
 00535,0.00000136,-0.00000015,-0.00000152,-0.00000152,0.00000101,-0.000
 00152,-0.00000071,-0.00000163,0.00000326,0.00000169,0.13001257,-0.0379
 3560,0.10039568,-0.00003874,0.00073322,0.00006079,-0.00489576,0.003465
 96,-0.00020165,-0.01585263,-0.02165245,0.00013248,-0.21732290,-0.13854
 826,0.00074725,0.00864100,0.00550123,-0.00020136,0.00111008,0.00222114
 ,-0.00019033,0.00121356,0.00008588,0.00004680,0.00049909,-0.00034728,0
 .00007710,-0.00000442,-0.00008579,0.00005338,0.00032692,0.00025031,0.0
 0003052,-0.00000726,0.00006306,-0.00000246,0.00001766,0.00002234,0.000
 02785,0.00002025,-0.00001805,0.00000497,-0.00003655,-0.00000823,-0.000
 03076,0.00000834,0.00000237,0.00000218,-0.00000091,0.00000495,-0.00000
 379,-0.00000286,-0.00000576,0.00000174,-0.00002134,0.00004994,0.000006
 75,0.00007190,0.00005117,0.00007640,-0.00005984,-0.00002695,-0.0000445
 2,-0.00003601,-0.00004555,-0.00005479,0.00001189,0.00001074,0.00002885
 ,0.00002621,0.00001861,0.00001510,-0.00000083,0.00000041,-0.00000535,-
 0.00000034,-0.00000062,0.00000456,0.00000126,0.00000114,0.00000243,-0.
 00000225,-0.00000219,-0.00000457,-0.00000193,0.00000002,-0.00000334,-0
 .00000215,-0.00000250,-0.00000242,-0.00000044,0.00000151,0.00000149,0.
 00000121,0.00000035,0.00000049,-0.00000223,-0.00000373,-0.00000153,0.0
 0000060,0.00000153,0.00000107,-0.00000267,-0.00000151,-0.00000280,0.00
 000189,-0.00000015,0.00000054,-0.00000302,-0.00000290,-0.00000230,-0.0
 0000364,-0.00000341,-0.00000126,0.00000259,0.00000217,-0.00000031,0.00
 000099,0.00000164,0.00000129,0.00006780,0.00011772,-0.00008740,-0.0000
 8272,-0.00000739,0.00006775,-0.00025399,-0.00004543,0.00005805,0.00000
 786,-0.00002498,-0.00002168,0.00012963,-0.00008764,-0.00001501,0.00000
 031,0.00000235,0.00000557,0.00000103,-0.00000358,0.00001147,-0.0000037
 6,0.00000336,-0.00000030,-0.00000385,-0.00000430,0.00000253,0.00000205
 ,0.00000032,-0.00000068,-0.00001070,0.00000651,0.00000157,0.00000523,-
 0.00000459,-0.00000319,-0.00000946,0.00000390,0.00000317,0.00000638,-0
 .00000394,-0.00000133,-0.00001906,0.00000809,0.00000562,-0.00001286,0.
 00000018,-0.00000412,0.00000377,0.00000081,0.00000206,0.00000642,-0.00
 000168,0.00000212,0.00005642,0.00007664,-0.00009452,-0.00002010,-0.000
 03724,0.00006415,-0.00001856,-0.00006611,0.00003839,0.00001071,0.00002
 596,-0.00001666,0.00000401,0.00001628,-0.00002671,-0.00000262,-0.00000
 311,0.00000202,0.00000289,0.00000155,0.00000146,0.00000042,0.00000223,
 -0.00000157,-0.00000306,-0.00000386,0.00000148,-0.00000172,-0.00000143
 ,0.00000166,-0.00000023,-0.00000273,0.00000214,-0.00000165,0.00000225,
 0.00000079,0.00000120,-0.00000035,-0.00000176,-0.00000003,-0.00000192,
 0.00000282,-0.00000074,0.00000096,-0.00000087,-0.00000112,-0.00000299,
 0.00000251,0.00000088,0.00000028,-0.00000134,-0.00000022,-0.00000200,0
 .00000330,-0.00000028,-0.00000350,0.00000443,-0.00000076,-0.00000115,-
 0.00000501,0.00000119,0.00000431,0.00000010,-0.00041052,-0.00115262,0.
 00005224,0.00000012,-0.00000317,-0.00000866,-0.00000079,-0.00000301,0.
 00000197,-0.00000546,0.00000476,0.00000288,0.00000717,-0.00000400,0.00
 000301,0.22689205,0.00072194,-0.00040767,-0.00008311,0.00285114,0.0003
 3349,0.00019473,0.00871317,0.01069049,0.00009067,-0.13849393,-0.180354
 52,0.00127758,-0.02466941,-0.01440671,0.00024589,0.00264347,-0.0051458
 3,0.00041941,-0.00050415,0.00053748,-0.00010413,0.00016460,0.00131387,
 -0.00011814,0.00021822,0.00007353,0.00006419,-0.00168386,0.00009677,-0
 .00025136,0.00016561,-0.00050959,0.00010692,-0.00012039,0.00001143,-0.
 00013504,0.00006100,-0.00001637,0.00003818,-0.00005954,-0.00003695,-0.
 00004512,0.00000866,0.00001269,0.00001072,0.00000846,-0.00004883,0.000
 00920,0.00000140,-0.00001183,0.00000451,0.00007206,0.00001821,0.000003
 18,0.00006089,0.00003386,0.00004005,-0.00004854,-0.00001521,-0.0000261
 4,-0.00003671,-0.00002563,-0.00003403,0.00000823,0.00000559,0.00001987
 ,0.00002427,0.00001736,0.00001677,-0.00000079,0.00000018,-0.00000262,0
 .00000035,-0.00000105,0.00000261,-0.00000020,0.00000095,0.00000095,-0.
 00000145,-0.00000080,-0.00000306,-0.00000163,0.00000083,-0.00000203,-0
 .00000145,-0.00000163,-0.00000165,-0.00000108,0.00000114,0.00000091,0.
 00000120,0.00000020,0.00000015,-0.00000153,-0.00000295,-0.00000171,0.0
 0000052,0.00000134,0.00000079,-0.00000256,-0.00000107,-0.00000218,0.00
 000145,0.00000045,0.00000143,-0.00000121,-0.00000343,-0.00000234,-0.00
 000374,-0.00000245,-0.00000121,0.00000228,0.00000160,-0.00000026,0.000
 00062,0.00000286,0.00000173,0.00009273,-0.00007344,-0.00002949,-0.0000
 5108,0.00002751,0.00002392,-0.00001305,0.00005620,0.00000076,0.0000152
 9,-0.00001985,-0.00000945,0.00001420,0.00000851,-0.00000238,-0.0000018
 2,0.00000325,0.00000197,-0.00000191,0.00000325,0.00000057,-0.00000251,
 0.00000147,0.00000020,0.00000064,-0.00000142,0.00000055,0.00000126,-0.
 00000021,-0.00000012,-0.00000338,0.00000013,-0.00000017,0.00000087,0.0
 0000044,-0.00000159,-0.00000229,0.00000123,0.00000070,0.00000161,0.000
 00085,0.00000092,-0.00000225,-0.00000153,0.00000028,-0.00000252,0.0000
 0094,0.00000002,0.00000224,-0.00000074,0.00000027,0.00000092,0.0000001
 0,0.00000008,0.00001054,0.00002310,-0.00006141,-0.00001448,-0.00002176
 ,0.00004659,-0.00002218,-0.00003062,0.00003481,0.00001137,0.00001430,-
 0.00001252,0.00000780,0.00001235,-0.00001988,-0.00000156,-0.00000055,0
 .00000182,0.00000254,0.00000049,0.00000073,-0.00000050,0.00000188,-0.0
 0000016,-0.00000215,-0.00000261,0.00000097,-0.00000215,-0.00000027,0.0
 0000186,-0.00000007,-0.00000206,0.00000145,-0.00000172,0.00000195,0.00
 000118,0.00000094,-0.00000079,-0.00000219,-0.00000081,-0.00000113,0.00
 000119,-0.00000124,0.00000033,-0.00000092,-0.00000094,-0.00000221,0.00
 000245,0.00000096,0.00000132,-0.00000078,0.00000102,-0.00000232,0.0000
 0162,-0.00000290,-0.00000369,0.00000508,0.00000018,-0.00000295,-0.0000
 0794,0.00000183,0.00000829,0.00000089,0.00039195,0.00042680,-0.0000631
 1,-0.00000027,-0.00000075,-0.00000210,0.00000003,-0.00000207,-0.000000
 47,-0.00000102,0.00000271,0.00000148,0.00001663,-0.00002800,0.00001195
 ,0.14945991,0.18743973,-0.00024023,0.00026204,-0.00326074,-0.00020318,
 0.00051936,0.00835348,-0.00048326,-0.00059460,0.00521555,0.00055775,0.
 00142803,-0.04160610,0.00054881,0.00008455,0.00528110,0.00008743,0.000
 48282,0.00878321,0.00007266,-0.00007538,-0.00375549,0.00020444,-0.0001
 9902,-0.00406660,-0.00008246,0.00019775,-0.00012263,0.00008734,-0.0002
 2715,-0.00051217,0.00016466,0.00003214,-0.00011050,-0.00008173,-0.0000
 0471,0.00002179,-0.00002608,0.00001885,-0.00000592,0.00001528,0.000049
 56,0.00013058,-0.00000601,-0.00000942,-0.00000307,-0.00000253,-0.00000
 316,0.00001129,0.00001593,0.00000199,-0.00002098,-0.00001093,-0.000267
 02,-0.00026335,0.00002634,0.00002648,0.00000386,0.00001693,0.00000848,
 0.00001459,0.00001334,0.00000315,0.00000488,0.00000222,0.00000468,0.00
 000060,0.00000039,-0.00000542,0.00000884,-0.00000114,0.00000159,-0.000
 00055,0.00000103,0.00000057,0.00000143,0.00000094,-0.00000041,0.000000
 45,-0.00000054,-0.00000110,-0.00000021,0.00000002,0.00000085,0.0000021
 0,0.00000075,0.00000011,-0.00000029,0.00000072,-0.00000055,0.00000029,
 0.00000013,0.00000099,-0.00000032,0.00000143,0.00000020,0.00000023,-0.
 00000076,0.00000143,-0.00000058,0.00000060,0.00000033,0.00000057,-0.00
 000012,-0.00000123,0.00000034,-0.00000140,-0.00000008,-0.00000050,0.00
 000003,0.00000008,0.,0.00000136,-0.00000006,-0.00000066,-0.00000018,0.
 00000012,0.00000071,-0.00000257,0.00002740,0.00001346,0.00000553,-0.00
 000673,-0.00001130,-0.00000130,-0.00002912,0.00000880,-0.00000037,0.00
 000669,0.00000652,0.00000616,0.00000347,-0.00000102,0.00000357,-0.0000
 0021,-0.00000402,-0.00000044,-0.00000080,-0.00000287,0.00000032,0.0000
 0011,0.00000033,0.00000070,0.00000076,-0.00000021,-0.00000170,-0.00000
 108,-0.00000090,0.00000124,-0.00000116,0.00000402,-0.00000058,-0.00000
 085,-0.00000254,-0.00000065,-0.00000018,0.00000004,0.00000050,0.000000
 58,-0.00000072,-0.00000086,-0.00000167,-0.00000023,-0.00000046,-0.0000
 0009,-0.00000021,-0.00000130,-0.00000010,0.00000008,0.00000064,0.00000
 137,-0.00000095,-0.00005340,0.00007287,0.00005421,-0.00000316,-0.00003
 091,0.00001132,0.00000126,-0.00001065,-0.00001260,0.00001480,0.0000042
 6,0.00000982,-0.00000546,-0.00000078,0.00000625,-0.00000027,0.00000124
 ,-0.00000100,-0.00000065,0.00000020,-0.00000076,0.00000086,-0.00000056
 ,-0.00000048,-0.00000009,-0.00000051,0.00000061,-0.00000104,-0.0000042
 8,0.00000010,-0.00000054,-0.00000113,0.00000149,0.00000200,-0.00000022
 ,-0.00000092,-0.00000140,0.00000171,0.00000049,0.00000113,-0.00000034,
 0.00000010,-0.00000081,0.00000029,0.00000059,-0.00000023,0.00000024,-0
 .00000049,0.00000059,-0.00000154,-0.00000067,-0.00000097,0.00000172,0.
 00000010,0.00000096,0.00000108,-0.00000107,-0.00000135,-0.00000013,0.0
 0000293,0.00000020,-0.00000299,-0.00000205,-0.00001067,-0.00010288,-0.
 00058830,-0.00000198,-0.00000033,0.00000277,0.00000037,0.00000092,-0.0
 0000021,0.00000052,-0.00000075,-0.00000055,-0.00000410,0.00000417,-0.0
 0000152,-0.00062498,-0.00166600,0.02640634\\-0.00000586,0.00000770,0.0
 0000295,0.00000083,-0.00000072,-0.00000460,0.00000290,0.00000316,-0.00
 000339,-0.00000178,0.00000034,-0.00000098,0.00000051,-0.00000333,-0.00
 000128,0.00000534,-0.00000608,-0.00000045,-0.00000011,-0.00000209,-0.0
 0000194,-0.00000068,-0.00000004,-0.00000125,0.00000497,-0.00000586,0.0
 0000377,-0.00000426,0.00000100,-0.00000268,0.00000250,0.00000086,0.000
 00507,-0.00000668,0.00000385,-0.00000466,0.00000788,-0.00000273,0.0000
 0787,-0.00000275,0.00000665,-0.00000257,0.00000064,-0.00000182,-0.0000
 0298,-0.00000017,-0.00000349,0.00000162,-0.00000112,-0.00000112,0.0000
 0122,0.00000014,-0.00000565,0.00000319,-0.00000682,0.00000095,-0.00000
 281,0.00000473,-0.00000028,0.00000072,-0.00000051,-0.00000302,-0.00000
 170,0.00000432,-0.00000667,-0.00000022,-0.00000153,0.00000219,0.000003
 63,0.00000483,0.00000253,0.00000050,-0.00000116,-0.00000233,-0.0000000
 6,-0.00000195,0.00000116,-0.00000021,-0.00000139,-0.00000375,-0.000001
 94,-0.00000164,0.00000092,0.00000828,-0.00000081,-0.00000319,-0.000002
 76,0.00000128,-0.00000273,-0.00000069,0.00000029,0.00000129,-0.0000015
 4,0.00000065,0.00000544,0.00000194,-0.00000042,-0.00000542,0.00000172,
 -0.00000190,-0.00000346,0.00000023,0.00000393,-0.00000551,0.00000105,0
 .00000635,-0.00000479,0.00000073,-0.00000125,-0.00000173,0.00000066,-0
 .00000017,0.00000053,0.00000270,-0.00000502,0.00000161,0.00000208,-0.0
 0000419,-0.00000543,0.00000057,-0.00000141,0.00000649,-0.00000120,0.00
 000751,-0.00000026,-0.00000288,-0.00000009,-0.00000020,-0.00000402,-0.
 00000512,-0.00000315,-0.00000436,0.00000240,0.00000047,-0.00000277,-0.
 00000076,-0.00000014,-0.00000474,0.00000058,0.00000111,-0.00000173,-0.
 00000025,0.00000091,0.00000016,0.00000054,0.00000168,-0.00000003,-0.00
 000632,0.00000472,0.00000181,0.00000102,0.00000139,-0.00000231,0.00000
 423,-0.00000059,-0.00000430,0.00000092,-0.00000089,-0.00000425,0.00000
 127,0.00000193,-0.00000013,0.00000176,-0.00000053,-0.00000204,0.,-0.00
 000040,-0.00000050,-0.00000106,-0.00000226,-0.00000009,-0.00000339,0.0
 0000274,-0.00001086,0.00000602,0.00000316,0.00000325,0.00000374,0.0000
 0303,0.00000043,-0.00000423,-0.00000421,0.00000228,-0.00000055,0.00000
 003,0.00000762,-0.00000297,0.00000368,0.00000299,-0.00000217,0.0000011
 9,0.00000066,0.00000291,0.00000135,-0.00000271,-0.00000010,-0.00000188
 ,0.00000153,-0.00000011,-0.00000166,-0.00000049,-0.00000020,0.00000469
 ,0.00000062,-0.00000155,0.00000289,0.00000090,0.00000159,0.00000232,0.
 00000187,-0.00000040,0.00000122,0.00000110,0.00000050,0.00000069,0.000
 00226,-0.00000068,0.00000091,0.00000329,-0.00000143,0.00000021,0.00000
 359,-0.00000222,0.00000591,-0.00000399,-0.00000060,-0.00000243,0.00000
 765,0.00000040,0.00000225,0.00000205,-0.00000002,0.,0.00000101,0.00000
 057,-0.00000136,-0.00000078,0.00000085,0.00000205,-0.00000107,-0.00000
 077,0.00000116,-0.00000037,-0.00000199,0.00000336,-0.00000074,0.000000
 54,-0.00000090,0.00000227,0.00000109,0.00000041,-0.00000273\\\@
 The archive entry for this job was punched.


 "WOULD YOU TELL ME PLEASE, WHICH WAY I OUGHT TO WALK FROM HERE?"
 "THAT DEPENDS A GREAT DEAL ON WHERE YOU WANT TO GO," SAID THE CAT.
 "I DON'T MUCH CARE WHERE -- ", SAID ALICE.
 "THEN IT DOESN'T MATTER WHICH WAY YOU WALK," SAID THE CAT.

                                      -- LEWIS CARROLL
 Job cpu time:       0 days 20 hours 56 minutes 48.9 seconds.
 Elapsed time:       0 days  1 hours 20 minutes  1.2 seconds.
 File lengths (MBytes):  RWF=   4032 Int=      0 D2E=      0 Chk=     31 Scr=      1
 Normal termination of Gaussian 16 at Sat Dec  7 23:20:26 2024.
