/mnt/lustre/scratch/nvme/SLURM/9663617/usccqdma.0fFZTPTSvp
OMP_STACKSIZE=0m
GAUSS_PDEF=16
GAUSS_MDEF=65536MB
GAUSS_RDEF=SCF=Direct
 Entering Gaussian System, Link 0=g16.exe
 Initial command:
 /opt/cesga/2020/software/Core/g16/c1/l1.exe "/mnt/lustre/scratch/nvme/SLURM/9663617/usccqdma.0fFZTPTSvp/Gau-3002679.inp" -scrdir="/mnt/lustre/scratch/nvme/SLURM/9663617/usccqdma.0fFZTPTSvp/"
 Default is to use a total of  16 processors:
                               16 via shared-memory
                                1 via Linda
 Entering Link 1 = /opt/cesga/2020/software/Core/g16/c1/l1.exe PID=   3002707.
  
 Copyright (c) 1988-2019, Gaussian, Inc.  All Rights Reserved.
  
 This is part of the Gaussian(R) 16 program.  It is based on
 the Gaussian(R) 09 system (copyright 2009, Gaussian, Inc.),
 the Gaussian(R) 03 system (copyright 2003, Gaussian, Inc.),
 the Gaussian(R) 98 system (copyright 1998, Gaussian, Inc.),
 the Gaussian(R) 94 system (copyright 1995, Gaussian, Inc.),
 the Gaussian 92(TM) system (copyright 1992, Gaussian, Inc.),
 the Gaussian 90(TM) system (copyright 1990, Gaussian, Inc.),
 the Gaussian 88(TM) system (copyright 1988, Gaussian, Inc.),
 the Gaussian 86(TM) system (copyright 1986, Carnegie Mellon
 University), and the Gaussian 82(TM) system (copyright 1983,
 Carnegie Mellon University). Gaussian is a federally registered
 trademark of Gaussian, Inc.
  
 This software contains proprietary and confidential information,
 including trade secrets, belonging to Gaussian, Inc.
  
 This software is provided under written license and may be
 used, copied, transmitted, or stored only in accord with that
 written license.
  
 The following legend is applicable only to US Government
 contracts under FAR:
  
                    RESTRICTED RIGHTS LEGEND
  
 Use, reproduction and disclosure by the US Government is
 subject to restrictions as set forth in subparagraphs (a)
 and (c) of the Commercial Computer Software - Restricted
 Rights clause in FAR 52.227-19.
  
 Gaussian, Inc.
 340 Quinnipiac St., Bldg. 40, Wallingford CT 06492
  
  
 ---------------------------------------------------------------
 Warning -- This program may not be used in any manner that
 competes with the business of Gaussian, Inc. or will provide
 assistance to any competitor of Gaussian, Inc.  The licensee
 of this program is prohibited from giving any competitor of
 Gaussian, Inc. access to this program.  By using this program,
 the user acknowledges that Gaussian, Inc. is engaged in the
 business of creating and licensing software in the field of
 computational chemistry and represents and warrants to the
 licensee that it is not a competitor of Gaussian, Inc. and that
 it will not use this program in any manner prohibited above.
 ---------------------------------------------------------------
  

 Cite this work as:
 Gaussian 16, Revision C.01,
 M. J. Frisch, G. W. Trucks, H. B. Schlegel, G. E. Scuseria, 
 M. A. Robb, J. R. Cheeseman, G. Scalmani, V. Barone, 
 G. A. Petersson, H. Nakatsuji, X. Li, M. Caricato, A. V. Marenich, 
 J. Bloino, B. G. Janesko, R. Gomperts, B. Mennucci, H. P. Hratchian, 
 J. V. Ortiz, A. F. Izmaylov, J. L. Sonnenberg, D. Williams-Young, 
 F. Ding, F. Lipparini, F. Egidi, J. Goings, B. Peng, A. Petrone, 
 T. Henderson, D. Ranasinghe, V. G. Zakrzewski, J. Gao, N. Rega, 
 G. Zheng, W. Liang, M. Hada, M. Ehara, K. Toyota, R. Fukuda, 
 J. Hasegawa, M. Ishida, T. Nakajima, Y. Honda, O. Kitao, H. Nakai, 
 T. Vreven, K. Throssell, J. A. Montgomery, Jr., J. E. Peralta, 
 F. Ogliaro, M. J. Bearpark, J. J. Heyd, E. N. Brothers, K. N. Kudin, 
 V. N. Staroverov, T. A. Keith, R. Kobayashi, J. Normand, 
 K. Raghavachari, A. P. Rendell, J. C. Burant, S. S. Iyengar, 
 J. Tomasi, M. Cossi, J. M. Millam, M. Klene, C. Adamo, R. Cammi, 
 J. W. Ochterski, R. L. Martin, K. Morokuma, O. Farkas, 
 J. B. Foresman, and D. J. Fox, Gaussian, Inc., Wallingford CT, 2019.
 
 ******************************************
 Gaussian 16:  ES64L-G16RevC.01  3-Jul-2019
                 7-Dec-2024 
 ******************************************
 Default route: SCF=Direct
 ----------------------------------------------------
 # m06/genecp scf=tight int=ultrafine 5d freq=noraman
 ----------------------------------------------------
 1/10=4,30=1,38=1/1,3;
 2/12=2,17=6,18=5,40=1/2;
 3/5=7,8=1,11=2,16=1,17=8,25=1,30=1,71=2,74=-54,75=-5,140=1/1,2,3;
 4//1;
 5/5=2,32=2,38=5,98=1/2;
 8/6=4,10=90,11=11/1;
 11/6=1,8=1,9=11,15=111,16=1/1,2,10;
 10/6=1/2;
 6/7=2,8=2,9=2,10=2,28=1/1;
 7/8=1,10=1,25=1/1,2,3,16;
 1/10=4,30=1/3;
 99//99;
 ------
 OPT-TS
 ------
 Symbolic Z-matrix:
 Charge =  0 Multiplicity = 1
 C                     0.20926  -2.59836  -1.03359 
 C                     2.1728   -1.41016  -0.68851 
 C                     2.94526  -2.4759   -1.11976 
 C                     2.31692  -3.64422  -1.52911 
 C                     0.93408  -3.70125  -1.48039 
 C                    -1.26244  -2.59159  -0.94566 
 C                    -3.1398   -1.34813  -0.37445 
 C                    -3.98304  -2.40495  -0.67737 
 C                    -3.42995  -3.59937  -1.13471 
 C                    -2.05792  -3.6941   -1.27368 
 H                     2.61799  -0.46204  -0.38799 
 H                     2.8973   -4.49161  -1.88643 
 H                     0.42275  -4.60291  -1.80453 
 H                    -3.51268  -0.38013  -0.04237 
 H                    -4.07573  -4.44038  -1.38222 
 H                    -1.61395  -4.61735  -1.63507 
 N                     0.83954  -1.46557  -0.64758 
 N                    -1.81518  -1.44716  -0.50291 
 Ir                   -0.34653   0.20067   0.03979 
 O                    -1.03195  -0.76701   2.90433 
 O                    -1.07848   3.19646  -0.37082 
 O                     2.37009   1.52526   0.01988 
 B                    -1.4644    1.86644  -0.47236 
 B                    -0.04008  -0.58125   1.95695 
 B                     1.13104   1.43095   0.66383 
 O                     1.13295   2.21544   1.80806 
 O                     1.17789  -1.06552   2.41761 
 C                     1.02305  -1.36379   3.8183 
 C                    -0.50312  -1.63369   3.9207 
 C                     3.28341   2.17985   0.91583 
 C                     2.31517   3.02694   1.78938 
 C                    -2.19068   4.01797  -0.75885 
 C                    -3.40319   3.06285  -0.53966 
 O                    -2.82404   1.77184  -0.78324 
 C                    -0.88169  -3.05606   3.52497 
 H                    -0.42079  -3.33272   2.56609 
 H                    -0.58233  -3.79172   4.2837 
 H                    -1.9712   -3.10878   3.40381 
 C                    -1.13047  -1.27965   5.25293 
 H                    -1.01965  -0.21351   5.47762 
 H                    -2.20348  -1.50885   5.23018 
 H                    -0.67602  -1.86195   6.06758 
 C                     1.91122  -2.53836   4.17233 
 H                     1.71745  -3.40395   3.52924 
 H                     2.96426  -2.25493   4.04503 
 H                     1.76472  -2.83886   5.21988 
 C                     1.45706  -0.12743   4.59438 
 H                     1.38591  -0.27987   5.67962 
 H                     2.50623   0.0919    4.35336 
 H                     0.85755   0.74854   4.31187 
 C                    -2.19324   5.26132   0.10883 
 H                    -3.07832   5.88149  -0.0935 
 H                    -2.17431   5.00878   1.1744 
 H                    -1.30006   5.86185  -0.10842 
 C                    -1.99492   4.4172   -2.21555 
 H                    -2.00994   3.54827  -2.88667 
 H                    -2.7676    5.12223  -2.55003 
 H                    -1.01755   4.90712  -2.31879 
 C                    -3.90735   3.06118   0.89853 
 H                    -4.43276   3.9914    1.15261 
 H                    -4.60954   2.22618   1.0234 
 H                    -3.08499   2.91777   1.61188 
 C                    -4.56295   3.27191  -1.49183 
 H                    -4.98006   4.28348  -1.3847 
 H                    -4.26261   3.12434  -2.53496 
 H                    -5.36015   2.55191  -1.26597 
 C                     2.78432   3.2598    3.21113 
 H                     2.92602   2.31659   3.75041 
 H                     3.73199   3.81766   3.22395 
 H                     2.0359    3.85008   3.75539 
 C                     1.93296   4.35442   1.14574 
 H                     2.76496   5.07188   1.15332 
 H                     1.5885    4.21168   0.11271 
 H                     1.09578   4.78416   1.71043 
 C                     4.28168   2.97415   0.09878 
 H                     3.78587   3.69074  -0.56612 
 H                     4.97429   3.52533   0.75101 
 H                     4.87458   2.28737  -0.52146 
 C                     4.0026    1.08264   1.69302 
 H                     3.28669   0.4512    2.23886 
 H                     4.54107   0.4389    0.98281 
 H                     4.73831   1.49062   2.39921 
 H                    -1.25039   1.0895    1.04834 
 C                     1.54533   0.10745  -3.34839 
 O                     1.07904  -1.02113  -3.50519 
 C                     2.9525    0.44293  -3.81541 
 H                     2.92989   1.32213  -4.47774 
 H                     3.54284   0.75237  -2.93638 
 C                    -0.46446   0.83905  -2.18822 
 H                    -1.13694   1.6162   -2.57714 
 H                    -0.8209   -0.10141  -2.61965 
 N                     0.85798   1.10367  -2.72315 
 C                     1.32565   2.47336  -2.66504 
 H                     1.13709   3.00626  -3.61243 
 H                     0.78401   2.98791  -1.86437 
 H                     2.39273   2.52713  -2.42692 
 C                     3.61525  -0.73011  -4.51012 
 H                     3.67787  -1.5994   -3.84438 
 H                     3.03908  -1.04461  -5.38758 
 C                     4.43617  -2.34655  -1.08436 
 F                     4.83008  -1.09849  -1.36804 
 F                     4.91997  -2.64181   0.12708 
 F                     5.02048  -3.1693   -1.96073 
 C                    -5.46696  -2.30081  -0.51679 
 F                    -5.90494  -3.1566    0.41504 
 F                    -5.85235  -1.07604  -0.16185 
 F                    -6.09277  -2.61791  -1.65655 
 H                     4.63093  -0.46967  -4.83144 
 

 GradGradGradGradGradGradGradGradGradGradGradGradGradGradGradGradGradGrad
 Berny optimization.
 Initialization pass.
 Trust Radius=3.00D-01 FncErr=1.00D-07 GrdErr=1.00D-07 EigMax=2.50D+02 EigMin=1.00D-04
 Number of steps in this run=      2 maximum allowed number of steps=      2.
 GradGradGradGradGradGradGradGradGradGradGradGradGradGradGradGradGradGrad

 Stoichiometry    C35H53B3F6IrN3O7
 Framework group  C1[X(C35H53B3F6IrN3O7)]
 Deg. of freedom   318
 Full point group                 C1      NOp   1
 Largest Abelian subgroup         C1      NOp   1
 Largest concise Abelian subgroup C1      NOp   1
                         Standard orientation:                         
 ---------------------------------------------------------------------
 Center     Atomic      Atomic             Coordinates (Angstroms)
 Number     Number       Type             X           Y           Z
 ---------------------------------------------------------------------
      1          6           0        0.209258   -2.598360   -1.033590
      2          6           0        2.172798   -1.410161   -0.688510
      3          6           0        2.945258   -2.475902   -1.119760
      4          6           0        2.316917   -3.644221   -1.529110
      5          6           0        0.934077   -3.701250   -1.480390
      6          6           0       -1.262442   -2.591589   -0.945660
      7          6           0       -3.139802   -1.348127   -0.374450
      8          6           0       -3.983042   -2.404947   -0.677370
      9          6           0       -3.429953   -3.599367   -1.134710
     10          6           0       -2.057923   -3.694098   -1.273680
     11          1           0        2.617989   -0.462041   -0.387990
     12          1           0        2.897296   -4.491612   -1.886430
     13          1           0        0.422746   -4.602910   -1.804530
     14          1           0       -3.512681   -0.380127   -0.042370
     15          1           0       -4.075734   -4.440377   -1.382220
     16          1           0       -1.613954   -4.617348   -1.635070
     17          7           0        0.839538   -1.465570   -0.647580
     18          7           0       -1.815182   -1.447158   -0.502910
     19         77           0       -0.346530    0.200671    0.039790
     20          8           0       -1.031951   -0.767009    2.904330
     21          8           0       -1.078478    3.196461   -0.370820
     22          8           0        2.370091    1.525259    0.019880
     23          5           0       -1.464399    1.866441   -0.472360
     24          5           0       -0.040081   -0.581250    1.956950
     25          5           0        1.131040    1.430950    0.663830
     26          8           0        1.132951    2.215440    1.808060
     27          8           0        1.177889   -1.065520    2.417610
     28          6           0        1.023048   -1.363790    3.818300
     29          6           0       -0.503122   -1.633689    3.920700
     30          6           0        3.283411    2.179848    0.915830
     31          6           0        2.315172    3.026939    1.789380
     32          6           0       -2.190678    4.017972   -0.758850
     33          6           0       -3.403188    3.062853   -0.539660
     34          8           0       -2.824039    1.771842   -0.783240
     35          6           0       -0.881693   -3.056059    3.524970
     36          1           0       -0.420793   -3.332719    2.566090
     37          1           0       -0.582333   -3.791719    4.283700
     38          1           0       -1.971203   -3.108778    3.403810
     39          6           0       -1.130471   -1.279649    5.252930
     40          1           0       -1.019651   -0.213509    5.477620
     41          1           0       -2.203482   -1.508848    5.230180
     42          1           0       -0.676022   -1.861949    6.067580
     43          6           0        1.911218   -2.538361    4.172330
     44          1           0        1.717447   -3.403951    3.529240
     45          1           0        2.964258   -2.254932    4.045030
     46          1           0        1.764717   -2.838861    5.219880
     47          6           0        1.457059   -0.127431    4.594380
     48          1           0        1.385909   -0.279871    5.679620
     49          1           0        2.506230    0.091899    4.353360
     50          1           0        0.857550    0.748540    4.311870
     51          6           0       -2.193237    5.261322    0.108830
     52          1           0       -3.078316    5.881493   -0.093500
     53          1           0       -2.174307    5.008782    1.174400
     54          1           0       -1.300056    5.861851   -0.108420
     55          6           0       -1.994917    4.417202   -2.215550
     56          1           0       -2.009938    3.548272   -2.886670
     57          1           0       -2.767597    5.122232   -2.550030
     58          1           0       -1.017547    4.907121   -2.318790
     59          6           0       -3.907348    3.061183    0.898530
     60          1           0       -4.432758    3.991404    1.152610
     61          1           0       -4.609539    2.226184    1.023400
     62          1           0       -3.084988    2.917773    1.611880
     63          6           0       -4.562948    3.271914   -1.491830
     64          1           0       -4.980058    4.283484   -1.384700
     65          1           0       -4.262608    3.124343   -2.534960
     66          1           0       -5.360149    2.551914   -1.265970
     67          6           0        2.784322    3.259798    3.211130
     68          1           0        2.926021    2.316588    3.750410
     69          1           0        3.731992    3.817658    3.223950
     70          1           0        2.035902    3.850079    3.755390
     71          6           0        1.932963    4.354419    1.145740
     72          1           0        2.764963    5.071878    1.153320
     73          1           0        1.588502    4.211679    0.112710
     74          1           0        1.095783    4.784160    1.710430
     75          6           0        4.281682    2.974147    0.098780
     76          1           0        3.785872    3.690738   -0.566120
     77          1           0        4.974292    3.525327    0.751010
     78          1           0        4.874581    2.287367   -0.521460
     79          6           0        4.002600    1.082638    1.693020
     80          1           0        3.286690    0.451198    2.238860
     81          1           0        4.541070    0.438897    0.982810
     82          1           0        4.738311    1.490617    2.399210
     83          1           0       -1.250390    1.089501    1.048340
     84          6           0        1.545330    0.107449   -3.348390
     85          8           0        1.079039   -1.021130   -3.505190
     86          6           0        2.952500    0.442928   -3.815410
     87          1           0        2.929890    1.322128   -4.477740
     88          1           0        3.542840    0.752368   -2.936380
     89          6           0       -0.464460    0.839051   -2.188220
     90          1           0       -1.136939    1.616201   -2.577140
     91          1           0       -0.820901   -0.101409   -2.619650
     92          7           0        0.857980    1.103670   -2.723150
     93          6           0        1.325651    2.473359   -2.665040
     94          1           0        1.137092    3.006260   -3.612430
     95          1           0        0.784012    2.987910   -1.864370
     96          1           0        2.392731    2.527129   -2.426920
     97          6           0        3.615249   -0.730112   -4.510120
     98          1           0        3.677868   -1.599402   -3.844380
     99          1           0        3.039079   -1.044612   -5.387580
    100          6           0        4.436168   -2.346553   -1.084360
    101          9           0        4.830079   -1.098493   -1.368040
    102          9           0        4.919968   -2.641813    0.127080
    103          9           0        5.020477   -3.169303   -1.960730
    104          6           0       -5.466962   -2.300806   -0.516790
    105          9           0       -5.904943   -3.156595    0.415040
    106          9           0       -5.852351   -1.076035   -0.161850
    107          9           0       -6.092772   -2.617905   -1.656550
    108          1           0        4.630929   -0.469673   -4.831440
 ---------------------------------------------------------------------
 Rotational constants (GHZ):           0.0575555           0.0445080           0.0402756
 General basis read from cards:  (5D, 7F)
 ======================================================================================================
                                       Pseudopotential Parameters
 ======================================================================================================
  Center     Atomic      Valence      Angular      Power
  Number     Number     Electrons     Momentum     of R      Exponent        Coefficient   SO-Coeffient
 ======================================================================================================
    1          6
                                   No pseudopotential on this center.
    2          6
                                   No pseudopotential on this center.
    3          6
                                   No pseudopotential on this center.
    4          6
                                   No pseudopotential on this center.
    5          6
                                   No pseudopotential on this center.
    6          6
                                   No pseudopotential on this center.
    7          6
                                   No pseudopotential on this center.
    8          6
                                   No pseudopotential on this center.
    9          6
                                   No pseudopotential on this center.
   10          6
                                   No pseudopotential on this center.
   11          1
                                   No pseudopotential on this center.
   12          1
                                   No pseudopotential on this center.
   13          1
                                   No pseudopotential on this center.
   14          1
                                   No pseudopotential on this center.
   15          1
                                   No pseudopotential on this center.
   16          1
                                   No pseudopotential on this center.
   17          7
                                   No pseudopotential on this center.
   18          7
                                   No pseudopotential on this center.
   19         77           17
                                      G and up 
                                                     1      823.5880147       -0.15780140    0.00000000
                                                     2      364.6613336    -1517.52704460    0.00000000
                                                     2       55.7082801     -316.53065290    0.00000000
                                                     2       12.0464544      -91.88809410    0.00000000
                                                     2        3.5120610       -9.22417730    0.00000000
                                      S - G
                                                     0      188.0490770        3.15780140    0.00000000
                                                     1      340.4194712       26.83225770    0.00000000
                                                     2      128.2373673      800.42500070    0.00000000
                                                     2       33.8644961      369.40506830    0.00000000
                                                     2        4.7560005      242.41718990    0.00000000
                                                     2        3.9649974     -118.21732820    0.00000000
                                      P - G
                                                     0      289.7291139        2.15780140    0.00000000
                                                     1       87.4633789       61.96786100    0.00000000
                                                     2       30.4363766      269.05819860    0.00000000
                                                     2        4.0553412      231.16547930    0.00000000
                                                     2        3.5525341     -133.69526670    0.00000000
                                      D - G
                                                     0      136.4017106        3.15780140    0.00000000
                                                     1       95.0776925       45.93498030    0.00000000
                                                     2       49.2258410      359.03446680    0.00000000
                                                     2       15.0874145      176.47401190    0.00000000
                                                     2        4.0405764       54.51552860    0.00000000
                                      F - G
                                                     0      127.3507908        3.95461970    0.00000000
                                                     1       66.2364374       52.97736550    0.00000000
                                                     2       34.4299229      274.86433830    0.00000000
                                                     2       10.1995721      137.20473380    0.00000000
                                                     2        2.5409702       14.86333050    0.00000000
   20          8
                                   No pseudopotential on this center.
   21          8
                                   No pseudopotential on this center.
   22          8
                                   No pseudopotential on this center.
   23          5
                                   No pseudopotential on this center.
   24          5
                                   No pseudopotential on this center.
   25          5
                                   No pseudopotential on this center.
   26          8
                                   No pseudopotential on this center.
   27          8
                                   No pseudopotential on this center.
   28          6
                                   No pseudopotential on this center.
   29          6
                                   No pseudopotential on this center.
   30          6
                                   No pseudopotential on this center.
   31          6
                                   No pseudopotential on this center.
   32          6
                                   No pseudopotential on this center.
   33          6
                                   No pseudopotential on this center.
   34          8
                                   No pseudopotential on this center.
   35          6
                                   No pseudopotential on this center.
   36          1
                                   No pseudopotential on this center.
   37          1
                                   No pseudopotential on this center.
   38          1
                                   No pseudopotential on this center.
   39          6
                                   No pseudopotential on this center.
   40          1
                                   No pseudopotential on this center.
   41          1
                                   No pseudopotential on this center.
   42          1
                                   No pseudopotential on this center.
   43          6
                                   No pseudopotential on this center.
   44          1
                                   No pseudopotential on this center.
   45          1
                                   No pseudopotential on this center.
   46          1
                                   No pseudopotential on this center.
   47          6
                                   No pseudopotential on this center.
   48          1
                                   No pseudopotential on this center.
   49          1
                                   No pseudopotential on this center.
   50          1
                                   No pseudopotential on this center.
   51          6
                                   No pseudopotential on this center.
   52          1
                                   No pseudopotential on this center.
   53          1
                                   No pseudopotential on this center.
   54          1
                                   No pseudopotential on this center.
   55          6
                                   No pseudopotential on this center.
   56          1
                                   No pseudopotential on this center.
   57          1
                                   No pseudopotential on this center.
   58          1
                                   No pseudopotential on this center.
   59          6
                                   No pseudopotential on this center.
   60          1
                                   No pseudopotential on this center.
   61          1
                                   No pseudopotential on this center.
   62          1
                                   No pseudopotential on this center.
   63          6
                                   No pseudopotential on this center.
   64          1
                                   No pseudopotential on this center.
   65          1
                                   No pseudopotential on this center.
   66          1
                                   No pseudopotential on this center.
   67          6
                                   No pseudopotential on this center.
   68          1
                                   No pseudopotential on this center.
   69          1
                                   No pseudopotential on this center.
   70          1
                                   No pseudopotential on this center.
   71          6
                                   No pseudopotential on this center.
   72          1
                                   No pseudopotential on this center.
   73          1
                                   No pseudopotential on this center.
   74          1
                                   No pseudopotential on this center.
   75          6
                                   No pseudopotential on this center.
   76          1
                                   No pseudopotential on this center.
   77          1
                                   No pseudopotential on this center.
   78          1
                                   No pseudopotential on this center.
   79          6
                                   No pseudopotential on this center.
   80          1
                                   No pseudopotential on this center.
   81          1
                                   No pseudopotential on this center.
   82          1
                                   No pseudopotential on this center.
   83          1
                                   No pseudopotential on this center.
   84          6
                                   No pseudopotential on this center.
   85          8
                                   No pseudopotential on this center.
   86          6
                                   No pseudopotential on this center.
   87          1
                                   No pseudopotential on this center.
   88          1
                                   No pseudopotential on this center.
   89          6
                                   No pseudopotential on this center.
   90          1
                                   No pseudopotential on this center.
   91          1
                                   No pseudopotential on this center.
   92          7
                                   No pseudopotential on this center.
   93          6
                                   No pseudopotential on this center.
   94          1
                                   No pseudopotential on this center.
   95          1
                                   No pseudopotential on this center.
   96          1
                                   No pseudopotential on this center.
   97          6
                                   No pseudopotential on this center.
   98          1
                                   No pseudopotential on this center.
   99          1
                                   No pseudopotential on this center.
  100          6
                                   No pseudopotential on this center.
  101          9
                                   No pseudopotential on this center.
  102          9
                                   No pseudopotential on this center.
  103          9
                                   No pseudopotential on this center.
  104          6
                                   No pseudopotential on this center.
  105          9
                                   No pseudopotential on this center.
  106          9
                                   No pseudopotential on this center.
  107          9
                                   No pseudopotential on this center.
  108          1
                                   No pseudopotential on this center.
 ======================================================================================================
 There are   940 symmetry adapted cartesian basis functions of A   symmetry.
 There are   884 symmetry adapted basis functions of A   symmetry.
   884 basis functions,  1767 primitive gaussians,   940 cartesian basis functions
   213 alpha electrons      213 beta electrons
       nuclear repulsion energy      9706.0422865334 Hartrees.
 NAtoms=  108 NActive=  108 NUniq=  108 SFac= 1.00D+00 NAtFMM=   60 NAOKFM=T Big=T
 Integral buffers will be    131072 words long.
 Raffenetti 2 integral format.
 Two-electron integral symmetry is turned on.
 One-electron integrals computed using PRISM.
   1 Symmetry operations used in ECPInt.
 ECPInt:  NShTT=   54615 NPrTT=  339395 LenC2=   41041 LenP2D=  126951.
 LDataN:  DoStor=T MaxTD1= 6 Len=  172
 NBasis=   884 RedAO= T EigKep=  4.30D-04  NBF=   884
 NBsUse=   884 1.00D-06 EigRej= -1.00D+00 NBFU=   884
 Defaulting to unpruned grid for atomic number  77.
 ExpMin= 2.90D-02 ExpMax= 7.00D+03 ExpMxC= 1.05D+03 IAcc=3 IRadAn=         5 AccDes= 0.00D+00
 Harris functional with IExCor= 1009 and IRadAn=       5 diagonalized for initial guess.
 HarFok:  IExCor= 1009 AccDes= 0.00D+00 IRadAn=         5 IDoV= 1 UseB2=F ITyADJ=14
 ICtDFT=  3500011 ScaDFX=  1.000000  1.000000  1.000000  1.000000
 Defaulting to unpruned grid for atomic number  77.
 FoFCou: FMM=F IPFlag=           0 FMFlag=      100000 FMFlg1=        2001
         NFxFlg=           0 DoJE=T BraDBF=F KetDBF=T FulRan=T
         wScrn=  0.000000 ICntrl=       500 IOpCl=  0 I1Cent=   200000004 NGrid=           0
         NMat0=    1 NMatS0=      1 NMatT0=    0 NMatD0=    1 NMtDS0=    0 NMtDT0=    0
 Petite list used in FoFCou.
 Requested convergence on RMS density matrix=1.00D-08 within 128 cycles.
 Requested convergence on MAX density matrix=1.00D-06.
 Requested convergence on             energy=1.00D-06.
 No special actions if energy rises.
 Defaulting to unpruned grid for atomic number  77.
 Defaulting to unpruned grid for atomic number  77.
 Defaulting to unpruned grid for atomic number  77.
 Defaulting to unpruned grid for atomic number  77.
 Defaulting to unpruned grid for atomic number  77.
 Defaulting to unpruned grid for atomic number  77.
 Defaulting to unpruned grid for atomic number  77.
 Defaulting to unpruned grid for atomic number  77.
 Defaulting to unpruned grid for atomic number  77.
 Defaulting to unpruned grid for atomic number  77.
 Defaulting to unpruned grid for atomic number  77.
 Defaulting to unpruned grid for atomic number  77.
 Defaulting to unpruned grid for atomic number  77.
 Defaulting to unpruned grid for atomic number  77.
 Defaulting to unpruned grid for atomic number  77.
 Defaulting to unpruned grid for atomic number  77.
 SCF Done:  E(RM06) =  -2833.54990835     A.U. after   14 cycles
            NFock= 14  Conv=0.98D-08     -V/T= 2.0320
 DoSCS=F DFT=T ScalE2(SS,OS)=  1.000000  1.000000
 Range of M.O.s used for correlation:     1   884
 NBasis=   884 NAE=   213 NBE=   213 NFC=     0 NFV=     0
 NROrb=    884 NOA=   213 NOB=   213 NVA=   671 NVB=   671

 **** Warning!!: The largest alpha MO coefficient is  0.11939523D+02

   1 Symmetry operations used in ECPInt.
 ECPInt:  NShTT=   54615 NPrTT=  339395 LenC2=   41041 LenP2D=  126951.
 LDataN:  DoStor=T MaxTD1= 7 Len=  274
 Number of processors reduced to   7 by ecpmxn.
 Symmetrizing basis deriv contribution to polar:
 IMax=3 JMax=2 DiffMx= 0.00D+00
 G2DrvN: will do   109 centers at a time, making    1 passes.
 Calling FoFCou, ICntrl=  3107 FMM=T I1Cent=   0 AccDes= 0.00D+00.
 Defaulting to unpruned grid for atomic number  77.
 Defaulting to unpruned grid for atomic number  77.
 Defaulting to unpruned grid for atomic number  77.
 Defaulting to unpruned grid for atomic number  77.
 Defaulting to unpruned grid for atomic number  77.
 Defaulting to unpruned grid for atomic number  77.
 Defaulting to unpruned grid for atomic number  77.
 Defaulting to unpruned grid for atomic number  77.
 Defaulting to unpruned grid for atomic number  77.
 Defaulting to unpruned grid for atomic number  77.
 Defaulting to unpruned grid for atomic number  77.
 Defaulting to unpruned grid for atomic number  77.
 Defaulting to unpruned grid for atomic number  77.
 Defaulting to unpruned grid for atomic number  77.
 Defaulting to unpruned grid for atomic number  77.
 Defaulting to unpruned grid for atomic number  77.
 End of G2Drv F.D. properties file   721 does not exist.
 End of G2Drv F.D. properties file   722 does not exist.
 End of G2Drv F.D. properties file   788 does not exist.
          IDoAtm=11111111111111111111111111111111111111111111111111
          IDoAtm=11111111111111111111111111111111111111111111111111
          IDoAtm=11111111
          Differentiating once with respect to electric field.
                with respect to dipole field.
          Differentiating once with respect to nuclear coordinates.
 Defaulting to unpruned grid for atomic number  77.
 CalDSu exits because no D1Ps are significant.
 Defaulting to unpruned grid for atomic number  77.
 Defaulting to unpruned grid for atomic number  77.
 Defaulting to unpruned grid for atomic number  77.
 Defaulting to unpruned grid for atomic number  77.
 Defaulting to unpruned grid for atomic number  77.
 Defaulting to unpruned grid for atomic number  77.
 Defaulting to unpruned grid for atomic number  77.
 Defaulting to unpruned grid for atomic number  77.
 Defaulting to unpruned grid for atomic number  77.
 Defaulting to unpruned grid for atomic number  77.
 Defaulting to unpruned grid for atomic number  77.
 Defaulting to unpruned grid for atomic number  77.
 Defaulting to unpruned grid for atomic number  77.
 Defaulting to unpruned grid for atomic number  77.
 Defaulting to unpruned grid for atomic number  77.
 Defaulting to unpruned grid for atomic number  77.
          There are   327 degrees of freedom in the 1st order CPHF.  IDoFFX=6 NUNeed=     3.
    324 vectors produced by pass  0 Test12= 1.43D-13 1.00D-09 XBig12= 5.08D+02 1.08D+01.
 AX will form    72 AO Fock derivatives at one time.
    324 vectors produced by pass  1 Test12= 1.43D-13 1.00D-09 XBig12= 8.37D+01 1.06D+00.
    324 vectors produced by pass  2 Test12= 1.43D-13 1.00D-09 XBig12= 9.33D-01 9.63D-02.
    324 vectors produced by pass  3 Test12= 1.43D-13 1.00D-09 XBig12= 7.46D-03 5.22D-03.
    324 vectors produced by pass  4 Test12= 1.43D-13 1.00D-09 XBig12= 3.28D-05 3.03D-04.
    285 vectors produced by pass  5 Test12= 1.43D-13 1.00D-09 XBig12= 7.10D-08 1.15D-05.
     83 vectors produced by pass  6 Test12= 1.43D-13 1.00D-09 XBig12= 1.00D-10 6.16D-07.
      3 vectors produced by pass  7 Test12= 1.43D-13 1.00D-09 XBig12= 1.32D-13 2.27D-08.
 InvSVY:  IOpt=1 It=  1 EMax= 1.07D-14
 Solved reduced A of dimension  1991 with   327 vectors.
 Isotropic polarizability for W=    0.000000      489.31 Bohr**3.
 End of Minotr F.D. properties file   721 does not exist.
 End of Minotr F.D. properties file   722 does not exist.
 End of Minotr F.D. properties file   788 does not exist.
 Hyperfine terms turned off by default for NAtoms > 100.

 **********************************************************************

            Population analysis using the SCF Density.

 **********************************************************************

 Orbital symmetries:
       Occupied  (A) (A) (A) (A) (A) (A) (A) (A) (A) (A) (A) (A)
                 (A) (A) (A) (A) (A) (A) (A) (A) (A) (A) (A) (A)
                 (A) (A) (A) (A) (A) (A) (A) (A) (A) (A) (A) (A)
                 (A) (A) (A) (A) (A) (A) (A) (A) (A) (A) (A) (A)
                 (A) (A) (A) (A) (A) (A) (A) (A) (A) (A) (A) (A)
                 (A) (A) (A) (A) (A) (A) (A) (A) (A) (A) (A) (A)
                 (A) (A) (A) (A) (A) (A) (A) (A) (A) (A) (A) (A)
                 (A) (A) (A) (A) (A) (A) (A) (A) (A) (A) (A) (A)
                 (A) (A) (A) (A) (A) (A) (A) (A) (A) (A) (A) (A)
                 (A) (A) (A) (A) (A) (A) (A) (A) (A) (A) (A) (A)
                 (A) (A) (A) (A) (A) (A) (A) (A) (A) (A) (A) (A)
                 (A) (A) (A) (A) (A) (A) (A) (A) (A) (A) (A) (A)
                 (A) (A) (A) (A) (A) (A) (A) (A) (A) (A) (A) (A)
                 (A) (A) (A) (A) (A) (A) (A) (A) (A) (A) (A) (A)
                 (A) (A) (A) (A) (A) (A) (A) (A) (A) (A) (A) (A)
                 (A) (A) (A) (A) (A) (A) (A) (A) (A) (A) (A) (A)
                 (A) (A) (A) (A) (A) (A) (A) (A) (A) (A) (A) (A)
                 (A) (A) (A) (A) (A) (A) (A) (A) (A)
       Virtual   (A) (A) (A) (A) (A) (A) (A) (A) (A) (A) (A) (A)
                 (A) (A) (A) (A) (A) (A) (A) (A) (A) (A) (A) (A)
                 (A) (A) (A) (A) (A) (A) (A) (A) (A) (A) (A) (A)
                 (A) (A) (A) (A) (A) (A) (A) (A) (A) (A) (A) (A)
                 (A) (A) (A) (A) (A) (A) (A) (A) (A) (A) (A) (A)
                 (A) (A) (A) (A) (A) (A) (A) (A) (A) (A) (A) (A)
                 (A) (A) (A) (A) (A) (A) (A) (A) (A) (A) (A) (A)
                 (A) (A) (A) (A) (A) (A) (A) (A) (A) (A) (A) (A)
                 (A) (A) (A) (A) (A) (A) (A) (A) (A) (A) (A) (A)
                 (A) (A) (A) (A) (A) (A) (A) (A) (A) (A) (A) (A)
                 (A) (A) (A) (A) (A) (A) (A) (A) (A) (A) (A) (A)
                 (A) (A) (A) (A) (A) (A) (A) (A) (A) (A) (A) (A)
                 (A) (A) (A) (A) (A) (A) (A) (A) (A) (A) (A) (A)
                 (A) (A) (A) (A) (A) (A) (A) (A) (A) (A) (A) (A)
                 (A) (A) (A) (A) (A) (A) (A) (A) (A) (A) (A) (A)
                 (A) (A) (A) (A) (A) (A) (A) (A) (A) (A) (A) (A)
                 (A) (A) (A) (A) (A) (A) (A) (A) (A) (A) (A) (A)
                 (A) (A) (A) (A) (A) (A) (A) (A) (A) (A) (A) (A)
                 (A) (A) (A) (A) (A) (A) (A) (A) (A) (A) (A) (A)
                 (A) (A) (A) (A) (A) (A) (A) (A) (A) (A) (A) (A)
                 (A) (A) (A) (A) (A) (A) (A) (A) (A) (A) (A) (A)
                 (A) (A) (A) (A) (A) (A) (A) (A) (A) (A) (A) (A)
                 (A) (A) (A) (A) (A) (A) (A) (A) (A) (A) (A) (A)
                 (A) (A) (A) (A) (A) (A) (A) (A) (A) (A) (A) (A)
                 (A) (A) (A) (A) (A) (A) (A) (A) (A) (A) (A) (A)
                 (A) (A) (A) (A) (A) (A) (A) (A) (A) (A) (A) (A)
                 (A) (A) (A) (A) (A) (A) (A) (A) (A) (A) (A) (A)
                 (A) (A) (A) (A) (A) (A) (A) (A) (A) (A) (A) (A)
                 (A) (A) (A) (A) (A) (A) (A) (A) (A) (A) (A) (A)
                 (A) (A) (A) (A) (A) (A) (A) (A) (A) (A) (A) (A)
                 (A) (A) (A) (A) (A) (A) (A) (A) (A) (A) (A) (A)
                 (A) (A) (A) (A) (A) (A) (A) (A) (A) (A) (A) (A)
                 (A) (A) (A) (A) (A) (A) (A) (A) (A) (A) (A) (A)
                 (A) (A) (A) (A) (A) (A) (A) (A) (A) (A) (A) (A)
                 (A) (A) (A) (A) (A) (A) (A) (A) (A) (A) (A) (A)
                 (A) (A) (A) (A) (A) (A) (A) (A) (A) (A) (A) (A)
                 (A) (A) (A) (A) (A) (A) (A) (A) (A) (A) (A) (A)
                 (A) (A) (A) (A) (A) (A) (A) (A) (A) (A) (A) (A)
                 (A) (A) (A) (A) (A) (A) (A) (A) (A) (A) (A) (A)
                 (A) (A) (A) (A) (A) (A) (A) (A) (A) (A) (A) (A)
                 (A) (A) (A) (A) (A) (A) (A) (A) (A) (A) (A) (A)
                 (A) (A) (A) (A) (A) (A) (A) (A) (A) (A) (A) (A)
                 (A) (A) (A) (A) (A) (A) (A) (A) (A) (A) (A) (A)
                 (A) (A) (A) (A) (A) (A) (A) (A) (A) (A) (A) (A)
                 (A) (A) (A) (A) (A) (A) (A) (A) (A) (A) (A) (A)
                 (A) (A) (A) (A) (A) (A) (A) (A) (A) (A) (A) (A)
                 (A) (A) (A) (A) (A) (A) (A) (A) (A) (A) (A) (A)
                 (A) (A) (A) (A) (A) (A) (A) (A) (A) (A) (A) (A)
                 (A) (A) (A) (A) (A) (A) (A) (A) (A) (A) (A) (A)
                 (A) (A) (A) (A) (A) (A) (A) (A) (A) (A) (A) (A)
                 (A) (A) (A) (A) (A) (A) (A) (A) (A) (A) (A) (A)
                 (A) (A) (A) (A) (A) (A) (A) (A) (A) (A) (A) (A)
                 (A) (A) (A) (A) (A) (A) (A) (A) (A) (A) (A) (A)
                 (A) (A) (A) (A) (A) (A) (A) (A) (A) (A) (A) (A)
                 (A) (A) (A) (A) (A) (A) (A) (A) (A) (A) (A) (A)
                 (A) (A) (A) (A) (A) (A) (A) (A) (A) (A) (A)
 The electronic state is 1-A.
 Alpha  occ. eigenvalues --  -24.83430 -24.83244 -24.83109 -24.82910 -24.82814
 Alpha  occ. eigenvalues --  -24.82584 -19.20965 -19.20860 -19.20764 -19.20728
 Alpha  occ. eigenvalues --  -19.20699 -19.19965 -19.16733 -14.46531 -14.45632
 Alpha  occ. eigenvalues --  -14.40739 -10.51642 -10.51474 -10.33413 -10.33168
 Alpha  occ. eigenvalues --  -10.32336 -10.31705 -10.30956 -10.30406 -10.30039
 Alpha  occ. eigenvalues --  -10.30025 -10.29929 -10.29877 -10.29787 -10.29771
 Alpha  occ. eigenvalues --  -10.29591 -10.29524 -10.29400 -10.29242 -10.29127
 Alpha  occ. eigenvalues --  -10.25474 -10.24783 -10.23794 -10.23256 -10.23206
 Alpha  occ. eigenvalues --  -10.23163 -10.23138 -10.23101 -10.23099 -10.23064
 Alpha  occ. eigenvalues --  -10.22779 -10.22683 -10.22587 -10.22361 -10.22158
 Alpha  occ. eigenvalues --  -10.22114  -6.82986  -6.80139  -6.79594  -3.64601
 Alpha  occ. eigenvalues --   -2.07595  -2.06460  -2.05382  -1.35991  -1.35813
 Alpha  occ. eigenvalues --   -1.27514  -1.27304  -1.26941  -1.26821  -1.06914
 Alpha  occ. eigenvalues --   -1.06715  -1.06304  -1.02619  -1.01263  -1.00061
 Alpha  occ. eigenvalues --   -0.99759  -0.99374  -0.98805  -0.92254  -0.86992
 Alpha  occ. eigenvalues --   -0.86105  -0.84543  -0.81029  -0.80891  -0.80759
 Alpha  occ. eigenvalues --   -0.80397  -0.77226  -0.75927  -0.75469  -0.75354
 Alpha  occ. eigenvalues --   -0.74903  -0.72711  -0.70907  -0.70857  -0.70391
 Alpha  occ. eigenvalues --   -0.70033  -0.69607  -0.68978  -0.68201  -0.68123
 Alpha  occ. eigenvalues --   -0.68038  -0.67652  -0.66663  -0.65593  -0.62603
 Alpha  occ. eigenvalues --   -0.62182  -0.62094  -0.61967  -0.61831  -0.61625
 Alpha  occ. eigenvalues --   -0.61491  -0.61163  -0.60971  -0.60543  -0.57147
 Alpha  occ. eigenvalues --   -0.55359  -0.55022  -0.54823  -0.54796  -0.54526
 Alpha  occ. eigenvalues --   -0.53838  -0.53375  -0.51913  -0.51817  -0.50162
 Alpha  occ. eigenvalues --   -0.49670  -0.49421  -0.49336  -0.49142  -0.49054
 Alpha  occ. eigenvalues --   -0.48713  -0.48484  -0.48008  -0.47793  -0.47399
 Alpha  occ. eigenvalues --   -0.47268  -0.47158  -0.46953  -0.46728  -0.46473
 Alpha  occ. eigenvalues --   -0.46224  -0.45883  -0.45578  -0.45454  -0.45343
 Alpha  occ. eigenvalues --   -0.45077  -0.44933  -0.44834  -0.44615  -0.44461
 Alpha  occ. eigenvalues --   -0.44121  -0.44067  -0.43748  -0.43522  -0.43290
 Alpha  occ. eigenvalues --   -0.43226  -0.43115  -0.42865  -0.42310  -0.41045
 Alpha  occ. eigenvalues --   -0.40664  -0.40455  -0.40430  -0.40400  -0.40218
 Alpha  occ. eigenvalues --   -0.40183  -0.40176  -0.40111  -0.39916  -0.39870
 Alpha  occ. eigenvalues --   -0.39541  -0.39318  -0.39078  -0.38757  -0.38016
 Alpha  occ. eigenvalues --   -0.37980  -0.37915  -0.37671  -0.37441  -0.37287
 Alpha  occ. eigenvalues --   -0.37079  -0.37054  -0.36686  -0.36604  -0.36543
 Alpha  occ. eigenvalues --   -0.36380  -0.36218  -0.35854  -0.35525  -0.35418
 Alpha  occ. eigenvalues --   -0.35084  -0.34948  -0.34768  -0.34195  -0.34149
 Alpha  occ. eigenvalues --   -0.33643  -0.33413  -0.33046  -0.32702  -0.32618
 Alpha  occ. eigenvalues --   -0.32283  -0.31854  -0.31717  -0.30856  -0.30835
 Alpha  occ. eigenvalues --   -0.30308  -0.29647  -0.28116  -0.27968  -0.27207
 Alpha  occ. eigenvalues --   -0.26913  -0.26776  -0.26337  -0.25785  -0.24178
 Alpha  occ. eigenvalues --   -0.23827  -0.22313  -0.18905
 Alpha virt. eigenvalues --   -0.08749  -0.04817  -0.04030  -0.00458   0.02768
 Alpha virt. eigenvalues --    0.03941   0.04950   0.05499   0.06673   0.07221
 Alpha virt. eigenvalues --    0.07289   0.07714   0.08737   0.09050   0.09599
 Alpha virt. eigenvalues --    0.09716   0.10572   0.11069   0.11278   0.11547
 Alpha virt. eigenvalues --    0.12017   0.12360   0.12705   0.12753   0.13339
 Alpha virt. eigenvalues --    0.13436   0.13802   0.13904   0.14122   0.14454
 Alpha virt. eigenvalues --    0.14585   0.14824   0.14922   0.15117   0.15312
 Alpha virt. eigenvalues --    0.15361   0.15580   0.15840   0.16066   0.16240
 Alpha virt. eigenvalues --    0.16553   0.16809   0.16985   0.17100   0.17233
 Alpha virt. eigenvalues --    0.17764   0.17818   0.18087   0.18312   0.18381
 Alpha virt. eigenvalues --    0.18605   0.18811   0.19157   0.19316   0.19448
 Alpha virt. eigenvalues --    0.19607   0.19824   0.19986   0.20198   0.20292
 Alpha virt. eigenvalues --    0.20423   0.20556   0.20751   0.20857   0.21137
 Alpha virt. eigenvalues --    0.21432   0.21535   0.21958   0.22032   0.22159
 Alpha virt. eigenvalues --    0.22549   0.22699   0.22920   0.23294   0.23442
 Alpha virt. eigenvalues --    0.23729   0.23865   0.24046   0.24201   0.24450
 Alpha virt. eigenvalues --    0.24662   0.25052   0.25306   0.25636   0.25843
 Alpha virt. eigenvalues --    0.26078   0.26278   0.26436   0.26532   0.26867
 Alpha virt. eigenvalues --    0.27206   0.27473   0.27833   0.27955   0.28638
 Alpha virt. eigenvalues --    0.28741   0.28979   0.29546   0.30567   0.30810
 Alpha virt. eigenvalues --    0.31165   0.31580   0.32069   0.32375   0.33247
 Alpha virt. eigenvalues --    0.34072   0.34250   0.34617   0.35539   0.35712
 Alpha virt. eigenvalues --    0.36172   0.36844   0.37328   0.38137   0.38880
 Alpha virt. eigenvalues --    0.39495   0.39814   0.40046   0.40698   0.41086
 Alpha virt. eigenvalues --    0.43731   0.44476   0.46267   0.47268   0.47378
 Alpha virt. eigenvalues --    0.47630   0.48009   0.48682   0.48865   0.49371
 Alpha virt. eigenvalues --    0.49757   0.50459   0.50691   0.50857   0.50903
 Alpha virt. eigenvalues --    0.51176   0.51356   0.52024   0.52329   0.52486
 Alpha virt. eigenvalues --    0.52964   0.53298   0.53800   0.54085   0.54676
 Alpha virt. eigenvalues --    0.54811   0.55386   0.55598   0.55870   0.56277
 Alpha virt. eigenvalues --    0.56646   0.56681   0.57030   0.57388   0.57638
 Alpha virt. eigenvalues --    0.58081   0.58191   0.58590   0.58687   0.58785
 Alpha virt. eigenvalues --    0.59055   0.59304   0.59607   0.59780   0.60682
 Alpha virt. eigenvalues --    0.60901   0.61184   0.61401   0.61647   0.61863
 Alpha virt. eigenvalues --    0.62281   0.62599   0.63057   0.63376   0.63848
 Alpha virt. eigenvalues --    0.64174   0.64490   0.64592   0.65032   0.65538
 Alpha virt. eigenvalues --    0.65656   0.66645   0.66865   0.67230   0.67485
 Alpha virt. eigenvalues --    0.67727   0.67971   0.68401   0.69156   0.69415
 Alpha virt. eigenvalues --    0.69679   0.69946   0.70537   0.71091   0.71253
 Alpha virt. eigenvalues --    0.71606   0.71878   0.72263   0.72530   0.72784
 Alpha virt. eigenvalues --    0.72814   0.73280   0.73686   0.73891   0.74002
 Alpha virt. eigenvalues --    0.74255   0.74258   0.74965   0.75175   0.75864
 Alpha virt. eigenvalues --    0.76245   0.76875   0.76941   0.77534   0.78163
 Alpha virt. eigenvalues --    0.78763   0.78874   0.79417   0.79697   0.80213
 Alpha virt. eigenvalues --    0.80978   0.81168   0.81945   0.82024   0.82404
 Alpha virt. eigenvalues --    0.82820   0.82887   0.83305   0.83380   0.84165
 Alpha virt. eigenvalues --    0.84283   0.84326   0.84691   0.84977   0.85187
 Alpha virt. eigenvalues --    0.85287   0.85627   0.85774   0.85952   0.86254
 Alpha virt. eigenvalues --    0.86434   0.87047   0.87749   0.87939   0.88271
 Alpha virt. eigenvalues --    0.88324   0.88536   0.88772   0.89172   0.89359
 Alpha virt. eigenvalues --    0.89591   0.89782   0.89852   0.90151   0.90441
 Alpha virt. eigenvalues --    0.90579   0.90662   0.90965   0.91066   0.91340
 Alpha virt. eigenvalues --    0.91521   0.92047   0.92354   0.92637   0.92980
 Alpha virt. eigenvalues --    0.93099   0.93558   0.94219   0.94440   0.94503
 Alpha virt. eigenvalues --    0.94804   0.95189   0.95415   0.95909   0.96250
 Alpha virt. eigenvalues --    0.96673   0.97097   0.97274   0.97607   0.98315
 Alpha virt. eigenvalues --    0.98598   0.98678   0.99325   0.99581   1.00107
 Alpha virt. eigenvalues --    1.00157   1.00931   1.01119   1.01619   1.01756
 Alpha virt. eigenvalues --    1.02795   1.02912   1.04178   1.04256   1.04706
 Alpha virt. eigenvalues --    1.05049   1.05592   1.05659   1.06332   1.06858
 Alpha virt. eigenvalues --    1.07353   1.08097   1.08682   1.09163   1.09448
 Alpha virt. eigenvalues --    1.10068   1.10442   1.11302   1.11740   1.12542
 Alpha virt. eigenvalues --    1.13414   1.13748   1.14432   1.14654   1.15833
 Alpha virt. eigenvalues --    1.16504   1.16776   1.16960   1.17089   1.17783
 Alpha virt. eigenvalues --    1.17993   1.18470   1.18604   1.18863   1.19283
 Alpha virt. eigenvalues --    1.19385   1.20265   1.20568   1.21078   1.21223
 Alpha virt. eigenvalues --    1.21831   1.22755   1.23126   1.23735   1.23935
 Alpha virt. eigenvalues --    1.24402   1.25759   1.26256   1.26604   1.27326
 Alpha virt. eigenvalues --    1.27420   1.28133   1.28637   1.30139   1.30726
 Alpha virt. eigenvalues --    1.31009   1.31187   1.32275   1.33092   1.33477
 Alpha virt. eigenvalues --    1.33669   1.34193   1.34229   1.35202   1.35484
 Alpha virt. eigenvalues --    1.35532   1.36102   1.36405   1.37023   1.37387
 Alpha virt. eigenvalues --    1.37451   1.38160   1.38425   1.38743   1.39200
 Alpha virt. eigenvalues --    1.39332   1.39598   1.40709   1.41664   1.42058
 Alpha virt. eigenvalues --    1.42500   1.43071   1.43563   1.43724   1.44402
 Alpha virt. eigenvalues --    1.44632   1.44769   1.45201   1.45524   1.45950
 Alpha virt. eigenvalues --    1.46773   1.47147   1.47697   1.48105   1.48632
 Alpha virt. eigenvalues --    1.49002   1.49646   1.51103   1.51881   1.52651
 Alpha virt. eigenvalues --    1.52823   1.53511   1.54678   1.54784   1.55182
 Alpha virt. eigenvalues --    1.56504   1.57259   1.58644   1.59958   1.60861
 Alpha virt. eigenvalues --    1.61352   1.62121   1.62568   1.63121   1.63952
 Alpha virt. eigenvalues --    1.64438   1.64823   1.65331   1.65741   1.66746
 Alpha virt. eigenvalues --    1.67220   1.67542   1.68170   1.68574   1.69076
 Alpha virt. eigenvalues --    1.69419   1.70121   1.70598   1.71276   1.72445
 Alpha virt. eigenvalues --    1.72522   1.73103   1.73746   1.74147   1.74538
 Alpha virt. eigenvalues --    1.75411   1.75709   1.76217   1.76456   1.76764
 Alpha virt. eigenvalues --    1.77374   1.77515   1.78184   1.78337   1.79244
 Alpha virt. eigenvalues --    1.79854   1.80666   1.81059   1.81362   1.81791
 Alpha virt. eigenvalues --    1.82319   1.83148   1.83248   1.83835   1.84139
 Alpha virt. eigenvalues --    1.84503   1.84896   1.85245   1.85619   1.85927
 Alpha virt. eigenvalues --    1.86135   1.87069   1.87217   1.87482   1.87550
 Alpha virt. eigenvalues --    1.87994   1.88250   1.88616   1.89511   1.89899
 Alpha virt. eigenvalues --    1.90268   1.90615   1.91035   1.91169   1.91367
 Alpha virt. eigenvalues --    1.91702   1.92107   1.92321   1.92423   1.92746
 Alpha virt. eigenvalues --    1.93125   1.93527   1.93805   1.94128   1.94268
 Alpha virt. eigenvalues --    1.95226   1.95292   1.95749   1.96374   1.97379
 Alpha virt. eigenvalues --    1.97448   1.98057   1.98199   1.98509   1.99280
 Alpha virt. eigenvalues --    1.99613   2.00454   2.01136   2.01606   2.01859
 Alpha virt. eigenvalues --    2.02211   2.02384   2.02605   2.02955   2.03030
 Alpha virt. eigenvalues --    2.03581   2.03928   2.04174   2.04381   2.05033
 Alpha virt. eigenvalues --    2.05139   2.05775   2.05980   2.06322   2.06671
 Alpha virt. eigenvalues --    2.06990   2.07116   2.07539   2.08018   2.08633
 Alpha virt. eigenvalues --    2.09404   2.09439   2.09753   2.09916   2.10120
 Alpha virt. eigenvalues --    2.10364   2.10861   2.11311   2.11777   2.12258
 Alpha virt. eigenvalues --    2.12368   2.13200   2.13355   2.13500   2.13628
 Alpha virt. eigenvalues --    2.13929   2.14470   2.15015   2.15241   2.15953
 Alpha virt. eigenvalues --    2.16576   2.16647   2.16903   2.17807   2.18439
 Alpha virt. eigenvalues --    2.18494   2.18719   2.18861   2.19203   2.19442
 Alpha virt. eigenvalues --    2.19633   2.19992   2.20509   2.20991   2.21407
 Alpha virt. eigenvalues --    2.21873   2.22030   2.22680   2.22865   2.23321
 Alpha virt. eigenvalues --    2.23595   2.24319   2.24667   2.24793   2.25182
 Alpha virt. eigenvalues --    2.25512   2.25694   2.25718   2.26447   2.26559
 Alpha virt. eigenvalues --    2.27259   2.27617   2.27892   2.28559   2.28994
 Alpha virt. eigenvalues --    2.30717   2.30915   2.31145   2.31912   2.32354
 Alpha virt. eigenvalues --    2.32562   2.33435   2.33835   2.34310   2.34838
 Alpha virt. eigenvalues --    2.35575   2.37049   2.37531   2.38246   2.38611
 Alpha virt. eigenvalues --    2.39293   2.39973   2.41227   2.41785   2.43383
 Alpha virt. eigenvalues --    2.44018   2.44273   2.45056   2.45733   2.46419
 Alpha virt. eigenvalues --    2.47569   2.47846   2.48449   2.48915   2.49092
 Alpha virt. eigenvalues --    2.49277   2.49666   2.50484   2.50850   2.52621
 Alpha virt. eigenvalues --    2.53372   2.54735   2.55509   2.59055   2.59401
 Alpha virt. eigenvalues --    2.59742   2.59838   2.60769   2.62665   2.63449
 Alpha virt. eigenvalues --    2.64017   2.64257   2.64785   2.65770   2.66088
 Alpha virt. eigenvalues --    2.67587   2.67920   2.69831   2.71634   2.73359
 Alpha virt. eigenvalues --    2.75467   2.76525   2.76871   2.77039   2.77719
 Alpha virt. eigenvalues --    2.78035   2.78174   2.79045   2.79921   2.80131
 Alpha virt. eigenvalues --    2.80386   2.80552   2.81001   2.81419   2.81612
 Alpha virt. eigenvalues --    2.83070   2.83480   2.84766   2.86124   2.87747
 Alpha virt. eigenvalues --    2.88358   2.89907   2.90525   2.91933   2.92816
 Alpha virt. eigenvalues --    2.94252   2.94526   2.95679   2.96325   2.98016
 Alpha virt. eigenvalues --    3.01133   3.01926   3.03418   3.04392   3.05053
 Alpha virt. eigenvalues --    3.05654   3.07265   3.08666   3.08813   3.10948
 Alpha virt. eigenvalues --    3.11134   3.11640   3.12212   3.12902   3.14140
 Alpha virt. eigenvalues --    3.14268   3.22193   3.26923   3.32182   3.45544
 Alpha virt. eigenvalues --   14.06335
          Condensed to atoms (all electrons):
 Mulliken charges:
               1
     1  C    0.354669
     2  C    0.056387
     3  C   -0.051778
     4  C   -0.148129
     5  C   -0.175537
     6  C    0.295399
     7  C    0.055139
     8  C   -0.079336
     9  C   -0.157672
    10  C   -0.187626
    11  H    0.234204
    12  H    0.200813
    13  H    0.177561
    14  H    0.231118
    15  H    0.202243
    16  H    0.182684
    17  N   -0.559487
    18  N   -0.489812
    19  Ir  -0.082547
    20  O   -0.498333
    21  O   -0.514153
    22  O   -0.533191
    23  B    0.443855
    24  B    0.472064
    25  B    0.452973
    26  O   -0.516069
    27  O   -0.514637
    28  C    0.292600
    29  C    0.296620
    30  C    0.296623
    31  C    0.295539
    32  C    0.293811
    33  C    0.290665
    34  O   -0.536075
    35  C   -0.509386
    36  H    0.164215
    37  H    0.152901
    38  H    0.176145
    39  C   -0.515365
    40  H    0.179024
    41  H    0.172088
    42  H    0.149544
    43  C   -0.510812
    44  H    0.168612
    45  H    0.171291
    46  H    0.152161
    47  C   -0.507104
    48  H    0.151835
    49  H    0.155711
    50  H    0.193031
    51  C   -0.506938
    52  H    0.150162
    53  H    0.177313
    54  H    0.167586
    55  C   -0.509534
    56  H    0.169930
    57  H    0.157124
    58  H    0.164954
    59  C   -0.518123
    60  H    0.153560
    61  H    0.170161
    62  H    0.191727
    63  C   -0.511388
    64  H    0.152223
    65  H    0.172261
    66  H    0.171843
    67  C   -0.509574
    68  H    0.164170
    69  H    0.149039
    70  H    0.170930
    71  C   -0.493228
    72  H    0.144432
    73  H    0.165724
    74  H    0.170687
    75  C   -0.509643
    76  H    0.165626
    77  H    0.155202
    78  H    0.164452
    79  C   -0.519929
    80  H    0.184010
    81  H    0.157361
    82  H    0.151891
    83  H    0.208362
    84  C    0.578976
    85  O   -0.544654
    86  C   -0.404868
    87  H    0.170254
    88  H    0.171276
    89  C   -0.338844
    90  H    0.165174
    91  H    0.204676
    92  N   -0.343629
    93  C   -0.365784
    94  H    0.156758
    95  H    0.201530
    96  H    0.169928
    97  C   -0.465542
    98  H    0.142790
    99  H    0.175305
   100  C    0.971592
   101  F   -0.310932
   102  F   -0.304458
   103  F   -0.316704
   104  C    0.969745
   105  F   -0.311760
   106  F   -0.308539
   107  F   -0.313599
   108  H    0.154456
 Sum of Mulliken charges =  -0.00000
 Mulliken charges with hydrogens summed into heavy atoms:
               1
     1  C    0.354669
     2  C    0.290592
     3  C   -0.051778
     4  C    0.052684
     5  C    0.002023
     6  C    0.295399
     7  C    0.286257
     8  C   -0.079336
     9  C    0.044571
    10  C   -0.004941
    17  N   -0.559487
    18  N   -0.489812
    19  Ir   0.125816
    20  O   -0.498333
    21  O   -0.514153
    22  O   -0.533191
    23  B    0.443855
    24  B    0.472064
    25  B    0.452973
    26  O   -0.516069
    27  O   -0.514637
    28  C    0.292600
    29  C    0.296620
    30  C    0.296623
    31  C    0.295539
    32  C    0.293811
    33  C    0.290665
    34  O   -0.536075
    35  C   -0.016124
    39  C   -0.014709
    43  C   -0.018749
    47  C   -0.006527
    51  C   -0.011876
    55  C   -0.017526
    59  C   -0.002675
    63  C   -0.015062
    67  C   -0.025435
    71  C   -0.012384
    75  C   -0.024363
    79  C   -0.026667
    84  C    0.578976
    85  O   -0.544654
    86  C   -0.063339
    89  C    0.031006
    92  N   -0.343629
    93  C    0.162433
    97  C    0.007009
   100  C    0.971592
   101  F   -0.310932
   102  F   -0.304458
   103  F   -0.316704
   104  C    0.969745
   105  F   -0.311760
   106  F   -0.308539
   107  F   -0.313599
 APT charges:
               1
     1  C    0.149394
     2  C    0.015431
     3  C   -0.174144
     4  C    0.089329
     5  C   -0.157708
     6  C    0.252137
     7  C    0.057461
     8  C   -0.184804
     9  C    0.096754
    10  C   -0.205310
    11  H    0.165236
    12  H    0.065419
    13  H    0.043624
    14  H    0.118516
    15  H    0.058346
    16  H    0.047391
    17  N   -0.046247
    18  N   -0.170598
    19  Ir  -0.965414
    20  O   -0.934537
    21  O   -1.028944
    22  O   -0.967292
    23  B    1.536818
    24  B    1.251166
    25  B    1.232809
    26  O   -0.957772
    27  O   -0.951119
    28  C    0.479665
    29  C    0.452677
    30  C    0.479205
    31  C    0.480013
    32  C    0.522508
    33  C    0.537707
    34  O   -1.031367
    35  C   -0.020712
    36  H   -0.028448
    37  H   -0.017315
    38  H    0.000592
    39  C   -0.004623
    40  H    0.006925
    41  H   -0.001764
    42  H   -0.017134
    43  C   -0.011041
    44  H   -0.001188
    45  H    0.004116
    46  H   -0.014683
    47  C   -0.047129
    48  H   -0.024532
    49  H    0.004394
    50  H    0.026621
    51  C   -0.012008
    52  H   -0.017639
    53  H    0.010526
    54  H   -0.001683
    55  C   -0.048348
    56  H    0.008454
    57  H   -0.021819
    58  H    0.005696
    59  C   -0.042073
    60  H   -0.020284
    61  H    0.003469
    62  H    0.010945
    63  C   -0.014570
    64  H   -0.015194
    65  H    0.005059
    66  H    0.003101
    67  C   -0.002047
    68  H    0.000977
    69  H   -0.018713
    70  H   -0.000584
    71  C   -0.017415
    72  H   -0.028298
    73  H    0.002342
    74  H    0.000545
    75  C   -0.009549
    76  H    0.000424
    77  H   -0.015681
    78  H    0.001764
    79  C   -0.039495
    80  H    0.018018
    81  H   -0.004976
    82  H   -0.016432
    83  H    0.038082
    84  C    0.832435
    85  O   -0.682449
    86  C    0.011473
    87  H   -0.024726
    88  H   -0.013738
    89  C    0.233030
    90  H   -0.064257
    91  H   -0.013344
    92  N   -0.728844
    93  C    0.290700
    94  H   -0.070311
    95  H    0.058226
    96  H   -0.001819
    97  C    0.095168
    98  H   -0.029396
    99  H   -0.002710
   100  C    1.760382
   101  F   -0.528000
   102  F   -0.574141
   103  F   -0.578047
   104  C    1.851641
   105  F   -0.618606
   106  F   -0.527452
   107  F   -0.616162
   108  H   -0.032073
 Sum of APT charges =  -0.00000
 APT charges with hydrogens summed into heavy atoms:
               1
     1  C    0.149394
     2  C    0.180667
     3  C   -0.174144
     4  C    0.154748
     5  C   -0.114085
     6  C    0.252137
     7  C    0.175976
     8  C   -0.184804
     9  C    0.155101
    10  C   -0.157919
    17  N   -0.046247
    18  N   -0.170598
    19  Ir  -0.927332
    20  O   -0.934537
    21  O   -1.028944
    22  O   -0.967292
    23  B    1.536818
    24  B    1.251166
    25  B    1.232809
    26  O   -0.957772
    27  O   -0.951119
    28  C    0.479665
    29  C    0.452677
    30  C    0.479205
    31  C    0.480013
    32  C    0.522508
    33  C    0.537707
    34  O   -1.031367
    35  C   -0.065883
    39  C   -0.016596
    43  C   -0.022796
    47  C   -0.040646
    51  C   -0.020805
    55  C   -0.056018
    59  C   -0.047943
    63  C   -0.021604
    67  C   -0.020367
    71  C   -0.042826
    75  C   -0.023043
    79  C   -0.042884
    84  C    0.832435
    85  O   -0.682449
    86  C   -0.026991
    89  C    0.155429
    92  N   -0.728844
    93  C    0.276796
    97  C    0.030989
   100  C    1.760382
   101  F   -0.528000
   102  F   -0.574141
   103  F   -0.578047
   104  C    1.851641
   105  F   -0.618606
   106  F   -0.527452
   107  F   -0.616162
 Electronic spatial extent (au):  <R**2>=          32097.7896
 Charge=              0.0000 electrons
 Dipole moment (field-independent basis, Debye):
    X=             -0.0304    Y=             -2.0989    Z=              0.5563  Tot=              2.1716
 Quadrupole moment (field-independent basis, Debye-Ang):
   XX=           -341.8639   YY=           -299.5968   ZZ=           -337.7268
   XY=              2.8576   XZ=              4.9864   YZ=             -1.6985
 Traceless Quadrupole moment (field-independent basis, Debye-Ang):
   XX=            -15.4680   YY=             26.7990   ZZ=            -11.3310
   XY=              2.8576   XZ=              4.9864   YZ=             -1.6985
 Octapole moment (field-independent basis, Debye-Ang**2):
  XXX=            -24.3959  YYY=           -119.4901  ZZZ=             59.6076  XYY=            -51.2835
  XXY=             56.2694  XXZ=             -3.5510  XZZ=             -4.7815  YZZ=             -8.2444
  YYZ=            -56.5133  XYZ=             -5.2368
 Hexadecapole moment (field-independent basis, Debye-Ang**3):
 XXXX=         -17524.0366 YYYY=         -12270.4696 ZZZZ=         -10316.2800 XXXY=            -32.1877
 XXXZ=            -24.4971 YYYX=            -10.5345 YYYZ=            290.2583 ZZZX=            -38.5019
 ZZZY=           -165.5387 XXYY=          -4809.0539 XXZZ=          -4567.1585 YYZZ=          -3811.6417
 XXYZ=             57.9929 YYXZ=             55.7023 ZZXY=             53.5413
 N-N= 9.706042286533D+03 E-N=-2.601855803790D+04  KE= 2.745577875810D+03
  Exact polarizability:     538.221       7.786     513.065      -8.671      17.184     416.645
 Approx polarizability:     781.825       4.269     755.154     -13.297      46.906     589.303
   1 Symmetry operations used in ECPInt.
 ECPInt:  NShTT=   54615 NPrTT=  339395 LenC2=   41041 LenP2D=  126951.
 LDataN:  DoStor=T MaxTD1= 8 Len=  415
 Calling FoFJK, ICntrl=    100127 FMM=F ISym2X=0 I1Cent= 0 IOpClX= 0 NMat=1 NMatS=1 NMatT=0.
 Defaulting to unpruned grid for atomic number  77.
 Defaulting to unpruned grid for atomic number  77.
 Defaulting to unpruned grid for atomic number  77.
 Defaulting to unpruned grid for atomic number  77.
 Defaulting to unpruned grid for atomic number  77.
 Defaulting to unpruned grid for atomic number  77.
 Defaulting to unpruned grid for atomic number  77.
 Defaulting to unpruned grid for atomic number  77.
 Defaulting to unpruned grid for atomic number  77.
 Defaulting to unpruned grid for atomic number  77.
 Defaulting to unpruned grid for atomic number  77.
 Defaulting to unpruned grid for atomic number  77.
 Defaulting to unpruned grid for atomic number  77.
 Defaulting to unpruned grid for atomic number  77.
 Defaulting to unpruned grid for atomic number  77.
 Defaulting to unpruned grid for atomic number  77.
 Full mass-weighted force constant matrix:
 Low frequencies ---  -66.2404   -5.3682    0.0003    0.0009    0.0010    3.2698
 Low frequencies ---    4.1636   11.7821   23.9607
 ******    1 imaginary frequencies (negative Signs) ****** 
 Diagonal vibrational polarizability:
       95.0407354      86.5904523     157.4891464
 Harmonic frequencies (cm**-1), IR intensities (KM/Mole), Raman scattering
 activities (A**4/AMU), depolarization ratios for plane and unpolarized
 incident light, reduced masses (AMU), force constants (mDyne/A),
 and normal coordinates:
                      1                      2                      3
                      A                      A                      A
 Frequencies --    -66.2372                11.5864                23.9180
 Red. masses --      6.3978                 7.9007                16.5012
 Frc consts  --      0.0165                 0.0006                 0.0056
 IR Inten    --     10.1289                 0.0313                 0.0281
  Atom AN      X      Y      Z        X      Y      Z        X      Y      Z
     1   6    -0.01   0.01  -0.00     0.00   0.02  -0.04    -0.00   0.00  -0.01
     2   6    -0.01   0.01   0.00     0.00   0.01  -0.03    -0.01  -0.00   0.02
     3   6    -0.01   0.01   0.00     0.00   0.02  -0.04    -0.00   0.00   0.01
     4   6    -0.01   0.01   0.00     0.00   0.02  -0.06    -0.00   0.01  -0.00
     5   6    -0.01   0.02  -0.00     0.00   0.02  -0.06    -0.00   0.01  -0.01
     6   6    -0.01   0.01  -0.00     0.01   0.00  -0.01    -0.00   0.00  -0.01
     7   6    -0.01   0.00   0.00     0.01  -0.01   0.03    -0.00  -0.02   0.05
     8   6    -0.01   0.00   0.00     0.01  -0.04   0.11    -0.00  -0.02   0.03
     9   6    -0.00   0.00  -0.00     0.02  -0.05   0.12    -0.00   0.00  -0.03
    10   6    -0.00   0.01  -0.00     0.01  -0.02   0.06    -0.00   0.01  -0.04
    11   1    -0.01   0.01  -0.00     0.00   0.01  -0.02    -0.01  -0.00   0.03
    12   1    -0.01   0.01   0.00     0.01   0.03  -0.07    -0.00   0.01  -0.01
    13   1    -0.01   0.02  -0.01     0.00   0.03  -0.07    -0.00   0.01  -0.02
    14   1    -0.02  -0.00   0.00     0.00  -0.01   0.01    -0.00  -0.04   0.08
    15   1    -0.00   0.00  -0.00     0.02  -0.07   0.19    -0.00   0.01  -0.04
    16   1     0.00   0.01  -0.00     0.02  -0.03   0.08    -0.00   0.03  -0.08
    17   7    -0.01   0.02   0.00     0.00   0.01  -0.03    -0.01  -0.00   0.01
    18   7    -0.01   0.01   0.00     0.00   0.01  -0.03    -0.00  -0.01   0.02
    19  77    -0.01   0.02  -0.03    -0.00   0.01  -0.03    -0.01  -0.00   0.01
    20   8    -0.00  -0.02  -0.00    -0.07  -0.01  -0.06     0.01   0.01   0.02
    21   8    -0.06   0.02   0.18     0.03   0.02  -0.02     0.02  -0.00  -0.02
    22   8     0.00   0.01  -0.02     0.01  -0.00   0.02    -0.01   0.00  -0.00
    23   5    -0.09   0.04   0.28     0.02   0.02  -0.04    -0.00   0.00  -0.01
    24   5    -0.00  -0.01  -0.00    -0.05  -0.01  -0.03     0.01   0.01   0.01
    25   5    -0.00   0.01  -0.04    -0.00  -0.00   0.00    -0.01   0.01  -0.00
    26   8    -0.01   0.00  -0.03    -0.01  -0.02   0.01    -0.00   0.01  -0.01
    27   8    -0.00  -0.00  -0.01    -0.06  -0.03  -0.01     0.01   0.02   0.01
    28   6     0.00  -0.01  -0.01    -0.10  -0.03  -0.01     0.02   0.02   0.01
    29   6     0.01  -0.01  -0.00    -0.10  -0.02  -0.05     0.03   0.01   0.02
    30   6    -0.00   0.00  -0.01    -0.00  -0.02   0.04    -0.01   0.01  -0.01
    31   6    -0.01   0.00  -0.02    -0.01  -0.02   0.03    -0.00   0.01  -0.01
    32   6    -0.03   0.02   0.07     0.05   0.03  -0.03     0.03   0.01  -0.03
    33   6    -0.05   0.05   0.07     0.03   0.05  -0.07     0.02   0.03  -0.02
    34   8    -0.05   0.02   0.20     0.02   0.04  -0.06    -0.00   0.02  -0.00
    35   6     0.01  -0.01  -0.00    -0.11  -0.01  -0.06     0.04   0.01   0.01
    36   1     0.01  -0.01  -0.00    -0.09  -0.02  -0.04     0.03   0.02   0.01
    37   1     0.02  -0.01  -0.00    -0.13  -0.01  -0.05     0.05   0.01   0.01
    38   1     0.01  -0.02   0.00    -0.11  -0.00  -0.08     0.04  -0.01   0.02
    39   6     0.01  -0.01   0.00    -0.13  -0.01  -0.06     0.03  -0.00   0.02
    40   1     0.00  -0.01  -0.00    -0.12  -0.01  -0.06     0.02   0.00   0.02
    41   1     0.01  -0.02   0.00    -0.13   0.00  -0.09     0.03  -0.01   0.03
    42   1     0.01  -0.01  -0.00    -0.15  -0.01  -0.05     0.04   0.00   0.02
    43   6     0.01  -0.00  -0.01    -0.12  -0.04   0.00     0.04   0.03   0.00
    44   1     0.01  -0.00  -0.01    -0.11  -0.04  -0.01     0.04   0.03   0.01
    45   1     0.01   0.00  -0.02    -0.11  -0.05   0.02     0.03   0.04  -0.00
    46   1     0.02  -0.00  -0.01    -0.14  -0.04  -0.00     0.04   0.03   0.01
    47   6     0.00  -0.00  -0.01    -0.10  -0.04  -0.00     0.01   0.03   0.01
    48   1     0.00  -0.00  -0.01    -0.12  -0.04  -0.00     0.02   0.03   0.01
    49   1    -0.00   0.00  -0.01    -0.09  -0.05   0.02     0.01   0.04   0.00
    50   1    -0.00  -0.01  -0.01    -0.08  -0.03  -0.01     0.01   0.02   0.01
    51   6    -0.04   0.07  -0.01     0.04   0.02  -0.02     0.04   0.02  -0.04
    52   1    -0.02   0.08  -0.09     0.05   0.03  -0.03     0.05   0.02  -0.05
    53   1    -0.10   0.14   0.01     0.02   0.01  -0.02     0.04   0.03  -0.04
    54   1    -0.02   0.04  -0.00     0.05   0.02   0.01     0.05   0.01  -0.05
    55   6     0.06  -0.08   0.05     0.09   0.05  -0.02     0.04  -0.01  -0.03
    56   1     0.08  -0.13   0.11     0.09   0.06  -0.03     0.03  -0.01  -0.02
    57   1     0.09  -0.09  -0.03     0.10   0.06  -0.03     0.05   0.00  -0.04
    58   1     0.07  -0.11   0.07     0.10   0.04   0.01     0.05  -0.02  -0.03
    59   6    -0.13   0.15   0.04    -0.00   0.04  -0.08     0.01   0.05  -0.03
    60   1    -0.12   0.18  -0.04     0.01   0.04  -0.08     0.02   0.06  -0.04
    61   1    -0.15   0.17   0.06    -0.02   0.05  -0.10    -0.00   0.06  -0.02
    62   1    -0.16   0.17   0.09    -0.02   0.02  -0.06     0.00   0.05  -0.02
    63   6     0.00  -0.00  -0.01     0.06   0.08  -0.09     0.03   0.04  -0.03
    64   1     0.01   0.01  -0.10     0.09   0.09  -0.10     0.06   0.06  -0.05
    65   1     0.06  -0.07   0.02     0.08   0.07  -0.09     0.03   0.01  -0.03
    66   1    -0.02   0.02  -0.01     0.03   0.10  -0.11    -0.00   0.08  -0.02
    67   6    -0.02  -0.00  -0.01    -0.03  -0.04   0.04     0.00   0.02  -0.02
    68   1    -0.02  -0.00  -0.02    -0.04  -0.05   0.04     0.00   0.02  -0.01
    69   1    -0.02   0.00  -0.01    -0.02  -0.05   0.06     0.00   0.02  -0.02
    70   1    -0.02  -0.00  -0.02    -0.03  -0.04   0.04     0.00   0.02  -0.02
    71   6    -0.00   0.00  -0.02     0.01  -0.01   0.04    -0.00   0.01  -0.02
    72   1    -0.00   0.00  -0.02     0.01  -0.02   0.06    -0.00   0.01  -0.02
    73   1    -0.00   0.01  -0.02     0.02   0.00   0.04    -0.01   0.01  -0.01
    74   1    -0.00   0.01  -0.02     0.00  -0.01   0.04     0.00   0.02  -0.01
    75   6     0.00   0.00  -0.01     0.02  -0.02   0.06    -0.01   0.00  -0.02
    76   1     0.01  -0.00  -0.01     0.03  -0.01   0.06    -0.02   0.00  -0.02
    77   1    -0.01   0.01  -0.00     0.01  -0.03   0.08    -0.01   0.01  -0.03
    78   1     0.01   0.00   0.00     0.02  -0.02   0.07    -0.02   0.00  -0.02
    79   6    -0.01   0.00  -0.01    -0.02  -0.04   0.04     0.00   0.02  -0.01
    80   1    -0.01   0.00  -0.01    -0.04  -0.03   0.02     0.01   0.02  -0.00
    81   1    -0.00   0.00  -0.00    -0.02  -0.03   0.04     0.00   0.01  -0.01
    82   1    -0.01   0.00  -0.00    -0.03  -0.05   0.05     0.00   0.02  -0.01
    83   1     0.02  -0.08   0.10    -0.01   0.01  -0.04    -0.01   0.00   0.00
    84   6     0.11  -0.08  -0.06     0.05   0.04  -0.02    -0.02  -0.03   0.00
    85   8     0.15  -0.10  -0.07     0.05   0.04  -0.04    -0.03  -0.03   0.01
    86   6     0.10  -0.02  -0.06     0.05   0.04  -0.00    -0.03  -0.04  -0.01
    87   1     0.06  -0.02  -0.06     0.06   0.05   0.01    -0.03  -0.04  -0.01
    88   1     0.08   0.00  -0.06     0.05   0.03   0.01    -0.02  -0.03  -0.01
    89   6     0.11  -0.20  -0.01     0.04   0.03  -0.03    -0.02  -0.01   0.01
    90   1     0.08  -0.16   0.12     0.04   0.03  -0.03    -0.01  -0.01  -0.00
    91   1     0.11  -0.17  -0.08     0.04   0.03  -0.04    -0.02  -0.01   0.02
    92   7     0.07  -0.12  -0.05     0.04   0.03  -0.01    -0.02  -0.02   0.00
    93   6     0.00  -0.10  -0.01     0.05   0.03   0.01    -0.01  -0.02  -0.01
    94   1    -0.09  -0.06   0.02     0.05   0.04   0.02    -0.01  -0.03  -0.01
    95   1     0.03  -0.16   0.05     0.05   0.02   0.02    -0.00  -0.02  -0.01
    96   1     0.01  -0.05  -0.08     0.05   0.03   0.01    -0.01  -0.03  -0.01
    97   6     0.14   0.00  -0.06     0.06   0.05  -0.01    -0.03  -0.04   0.00
    98   1     0.16   0.00  -0.05     0.04   0.04  -0.03    -0.02  -0.03   0.01
    99   1     0.15  -0.02  -0.06     0.07   0.07  -0.02    -0.04  -0.05   0.01
   100   6    -0.01   0.01   0.01     0.00   0.01  -0.02    -0.00   0.00   0.02
   101   9    -0.00   0.01   0.00     0.01   0.02   0.01    -0.00   0.00   0.00
   102   9    -0.01   0.01   0.01    -0.01  -0.01  -0.02    -0.01   0.02   0.02
   103   9    -0.01   0.00   0.01     0.01   0.03  -0.03     0.00  -0.00   0.03
   104   6    -0.01  -0.00   0.00     0.02  -0.08   0.19    -0.00  -0.03  -0.00
   105   9    -0.00  -0.00   0.00     0.09  -0.11   0.19    -0.08  -0.41  -0.38
   106   9    -0.01  -0.00   0.00     0.01  -0.10   0.23     0.02  -0.17   0.49
   107   9    -0.01  -0.00   0.00    -0.03  -0.07   0.21     0.04   0.46  -0.16
   108   1     0.13   0.03  -0.06     0.06   0.05   0.00    -0.03  -0.05  -0.01
                      4                      5                      6
                      A                      A                      A
 Frequencies --     26.4169                32.8192                34.4151
 Red. masses --      4.3806                 4.5388                 4.7536
 Frc consts  --      0.0018                 0.0029                 0.0033
 IR Inten    --      0.2477                 0.4799                 0.3398
  Atom AN      X      Y      Z        X      Y      Z        X      Y      Z
     1   6     0.02  -0.01   0.02     0.00   0.00   0.03    -0.01   0.02  -0.05
     2   6     0.01   0.01  -0.02    -0.01   0.03   0.01    -0.01  -0.02   0.02
     3   6     0.02   0.01  -0.02     0.00   0.02   0.03    -0.01  -0.02   0.02
     4   6     0.02   0.00  -0.00     0.01   0.01   0.05    -0.02  -0.00  -0.03
     5   6     0.02  -0.01   0.02     0.01   0.00   0.05    -0.02   0.02  -0.06
     6   6     0.02  -0.02   0.02     0.00  -0.01   0.02    -0.02   0.03  -0.06
     7   6     0.01  -0.02  -0.01    -0.02  -0.01  -0.02    -0.00   0.02   0.02
     8   6     0.02  -0.03  -0.01    -0.00  -0.03  -0.01    -0.01   0.03  -0.01
     9   6     0.03  -0.03   0.02     0.02  -0.03   0.02    -0.03   0.05  -0.08
    10   6     0.03  -0.03   0.03     0.02  -0.02   0.04    -0.03   0.05  -0.11
    11   1     0.01   0.02  -0.04    -0.02   0.04  -0.01     0.00  -0.03   0.06
    12   1     0.03   0.00  -0.00     0.02   0.01   0.07    -0.02  -0.00  -0.03
    13   1     0.03  -0.02   0.04     0.02  -0.01   0.07    -0.03   0.03  -0.08
    14   1     0.01  -0.02  -0.02    -0.03  -0.01  -0.05     0.01   0.00   0.06
    15   1     0.03  -0.04   0.02     0.03  -0.05   0.04    -0.04   0.07  -0.12
    16   1     0.04  -0.03   0.05     0.03  -0.02   0.06    -0.04   0.07  -0.16
    17   7     0.02  -0.00  -0.00    -0.01   0.02   0.01    -0.01  -0.00  -0.01
[...]
 8,0.00005391,0.00006374,-0.00000401,0.00001674,-0.00001100,0.00000365,
 -0.00000425,0.00000240,0.00001430,0.00000070,0.00000011,-0.00000740,-0
 .00000093,-0.00000048,-0.00000422,0.00000224,-0.00000801,0.00000405,-0
 .00000423,0.00000028,0.00000441,-0.00000045,0.00000476,0.00017435,-0.0
 0003016,-0.00000794,-0.00003866,-0.00000746,0.,-0.00005750,0.00000984,
 -0.00002613,-0.00005355,0.00003257,0.00002634,-0.02518385,-0.08658924,
 -0.03957151,0.00923606,0.01093933,0.03117927,-0.01782215,-0.03312980,-
 0.05518791,0.03724498,0.09928338,-0.00004704,0.00006606,-0.00008023,-0
 .00001316,0.00008637,0.00001937,-0.00015238,-0.00008018,0.00001744,0.0
 0010406,-0.00000422,-0.00001166,-0.00021233,-0.00004446,-0.00000661,0.
 00052423,0.00026173,-0.00029417,-0.00207253,0.00197776,0.00000264,-0.0
 1480769,-0.00643320,-0.00835471,0.00120617,-0.00267726,-0.00032180,-0.
 00109768,0.00004080,0.00089365,0.00000609,0.00001508,-0.00000502,-0.00
 001840,0.00001006,-0.00000705,0.00002289,-0.00000019,-0.00002641,0.000
 34935,0.00043466,-0.00017693,-0.00019004,0.00132938,-0.00072002,-0.000
 19993,0.00007567,-0.00002197,-0.00008373,0.00017603,0.00002978,-0.0010
 4432,-0.00086920,0.00037502,0.00004403,0.00000737,0.00014536,-0.000248
 05,-0.00006075,0.00002751,0.00004707,-0.00029500,0.00008932,-0.0002580
 8,-0.00015379,-0.00002226,0.00002468,0.00040657,-0.00022651,0.00033151
 ,0.00004006,-0.00004734,0.00028497,0.00020201,0.00008362,-0.00018958,-
 0.00019353,-0.00009111,-0.00018880,0.00001701,-0.00005056,0.00007111,-
 0.00000226,0.00004670,0.00004566,0.00002386,0.00007349,0.00006554,0.00
 004988,0.00005132,0.00008897,0.00008908,-0.00001274,-0.00006026,0.0000
 9396,-0.00004831,-0.00012912,0.00017482,-0.00015857,0.00001561,-0.0003
 0209,0.00024664,0.00009768,-0.00000716,-0.00001078,0.00001613,-0.00000
 836,0.00000236,-0.00002878,0.00000033,-0.00002909,-0.00004692,-0.00001
 148,0.00004560,0.00004430,0.00000008,-0.00000877,0.00000089,-0.0000136
 2,-0.00000096,-0.00002434,-0.00000956,0.00002970,-0.00002051,0.0000132
 2,-0.00001078,-0.00002015,-0.00000423,0.00000435,0.00001622,-0.0000096
 4,-0.00000291,-0.00002374,-0.00000736,0.00000214,0.00001000,0.00000263
 ,-0.00000485,-0.00002561,-0.00000547,0.00000544,0.00000799,0.00000054,
 -0.00000785,-0.00002388,-0.00000715,0.00000212,0.00001142,0.00001147,0
 .00000047,-0.00001537,-0.00001348,0.00001138,0.00001442,-0.00000683,-0
 .00000620,0.00001034,0.00001294,0.00002159,-0.00001617,-0.00000892,0.0
 0000244,-0.00001685,-0.00003818,0.00000680,-0.00001924,0.00002136,-0.0
 0000867,0.00001658,-0.00002661,0.00000361,-0.00000911,0.00000239,0.000
 01316,0.00014757,0.00007894,0.00002218,-0.00001579,-0.00005523,0.00000
 714,-0.00007705,0.00001106,-0.00000714,0.00001190,0.00001115,0.0000336
 5,0.00008530,0.00003052,0.00000458,0.00000535,-0.00001366,0.00001984,-
 0.00006992,-0.00005497,0.00006527,-0.00002239,0.00003595,-0.00011501,-
 0.00001028,-0.00000773,-0.00000308,0.00001012,0.00000163,0.00000441,-0
 .00001556,-0.00000915,-0.00000207,0.00000691,0.00000428,-0.00000272,-0
 .00000630,-0.00001298,0.00000103,-0.00001396,-0.00001547,0.00000087,0.
 00000439,0.00000757,-0.00000164,0.00000473,0.00000519,-0.00000022,-0.0
 0000960,-0.00000301,-0.00000563,0.00000676,-0.00000522,0.00000413,-0.0
 0000980,-0.00000887,-0.00000456,-0.00000159,0.00000812,0.00000471,-0.0
 0000502,-0.00000555,-0.00001245,0.00000636,0.00000014,0.00001150,0.000
 00584,0.00000500,0.00000489,-0.00000978,-0.00000549,-0.00001219,0.0000
 4441,0.00003501,0.00001170,0.00007583,-0.00022991,-0.00015155,0.000052
 33,0.00010725,0.00019196,-0.00001872,0.00000695,-0.00002137,-0.0000050
 3,-0.00001256,0.00000708,0.00000052,0.00001319,0.00000911,0.00020527,0
 .00006855,-0.00017465,-0.00000554,-0.00005531,0.00007382,-0.00003192,0
 .00001577,-0.00000312,-0.00020951,0.00006438,0.00021880,0.00000491,0.0
 0007839,-0.00004192,0.00000284,-0.00002226,0.00003041,0.00000398,0.000
 01242,-0.00001129,-0.00000356,-0.00000581,-0.00000514,-0.00001214,0.00
 001613,-0.00002854,0.00000924,-0.00002212,0.00001001,0.00000793,0.0000
 0093,0.00001612,0.00040215,0.00000149,-0.00009886,-0.00010141,-0.00005
 840,0.00002222,-0.00012043,0.00000551,-0.00002391,-0.00012647,0.000062
 85,0.00007506,-0.09893673,-0.03693373,-0.21744080,-0.01513228,0.018707
 27,-0.08018577,-0.00799718,-0.04417826,-0.03077445,0.13970105,0.067972
 95,0.33679126,-0.00000819,0.00000984,-0.00002953,0.00001988,0.00001660
 ,-0.00003249,0.00000903,0.00002190,0.00004444,-0.00001582,-0.00000106,
 -0.00001816,0.00002629,-0.00000226,0.00001167,0.00006803,0.00000722,-0
 .00002494,-0.00000928,-0.00001411,-0.00000894,-0.00001974,0.00003587,0
 .00001091,0.00003116,-0.00002551,-0.00000848,-0.00004125,-0.00000774,0
 .00000320,-0.00001563,-0.00000728,-0.00003157,-0.00001259,-0.00000495,
 -0.00000233,-0.00000004,0.00000285,-0.00000475,0.00000412,0.00000293,-
 0.00000235,-0.00000094,-0.00000109,-0.00000149,0.00000363,0.00000313,-
 0.00000404,-0.00002517,0.00004375,-0.00001111,0.00002541,0.00002762,0.
 00002625,-0.00003125,-0.00003496,0.00016688,-0.00000566,-0.00003550,0.
 00009694,-0.00006632,0.00012218,0.00003584,0.00010699,0.00005785,0.000
 09544,0.00014836,-0.00014089,-0.00020618,0.00000603,0.00001878,-0.0001
 4247,-0.00008598,-0.00008985,-0.00013439,0.00006776,0.00008141,0.00007
 752,0.00004374,-0.00003902,0.00011396,0.00000033,0.00000736,-0.0000469
 7,-0.00001120,0.00002532,-0.00002903,-0.00009444,-0.00005996,-0.000066
 33,-0.00004152,-0.00002238,0.00000110,0.00004883,-0.00004659,0.0000141
 3,0.00003651,-0.00006361,-0.00000983,-0.00012289,0.00008399,0.00003530
 ,0.00000416,-0.00000440,0.00000002,-0.00000326,0.00000411,0.00000286,0
 .00000124,-0.00000511,0.00000548,0.00000073,0.00000165,-0.00000270,0.0
 0000051,-0.00000244,0.00000270,-0.00000008,0.00000156,-0.00000125,-0.0
 0000196,0.00000065,-0.00000120,0.00000130,-0.00000252,0.00000547,-0.00
 000106,-0.00000169,0.00000560,-0.00000117,0.00000184,-0.00000233,0.000
 00309,0.00000163,-0.00000213,0.00000040,-0.00000313,0.00000579,-0.0000
 0232,-0.00000094,0.00000777,0.00000039,0.00000082,0.00000768,0.0000018
 0,0.00000126,-0.00000270,0.00000066,-0.00000229,-0.00000412,-0.0000047
 6,0.00000303,0.00000076,-0.00000534,0.00000570,0.00000056,0.00000035,-
 0.00000153,0.00000258,0.00000456,-0.00000023,-0.00000100,-0.00001034,0
 .00000009,-0.00001503,0.00001294,0.00000066,0.00001305,-0.00001052,0.0
 0000995,0.00000270,0.00000447,-0.00000986,0.00000100,-0.00000617,0.000
 00960,0.00000389,-0.00000513,0.00000735,0.00000487,0.00000108,-0.00000
 342,-0.00000107,0.00000171,-0.00000253,-0.00000446,-0.00000414,0.00000
 288,-0.00000009,-0.00000364,0.00000682,0.00000026,0.00000424,-0.000003
 14,0.00000239,-0.00000111,-0.00000404,-0.00000003,-0.00000096,0.000000
 55,0.00000245,-0.00000115,-0.00000242,0.00000141,0.00000631,0.00000437
 ,0.00000194,-0.00000193,0.00000004,0.00000176,-0.00000016,0.00000134,-
 0.00001361,0.00000838,0.00000861,0.00000407,-0.00000304,-0.00000828,0.
 00000342,-0.00000048,-0.00000152,0.00000090,0.00000560,0.00002888,0.00
 000620,-0.00000779,-0.00001040,-0.00000088,0.00000828,0.00000503,0.000
 00999,-0.00000506,-0.00001403,-0.00000134,0.00001128,0.00000943,0.0000
 1161,-0.00000148,-0.00000037,-0.00000705,-0.00000699,-0.00000621,-0.00
 000548,0.00000766,0.00000217,0.00001136,-0.00001296,0.00000495,-0.0000
 0139,0.00071769,0.00098919,0.00032320,-0.00030804,0.00104716,0.0008020
 4,-0.01129463,-0.00447511,0.00255562,0.00008232,0.00006793,-0.00042069
 ,0.00047827,-0.00001689,0.00015261,0.00022183,0.00035517,-0.00014416,-
 0.00011559,0.00001446,0.00008223,0.00004446,-0.00001505,0.00001571,-0.
 00125974,0.00016276,0.00076216,-0.00015527,-0.00032608,0.00000511,0.00
 000187,0.00007629,-0.00003913,0.,0.00005835,0.00000209,0.00003551,-0.0
 0002269,-0.00001304,-0.27647936,-0.06058468,0.07112502,0.00337091,0.00
 097982,-0.00150306,-0.01346809,-0.00320068,0.00617716,-0.00041232,-0.0
 0006130,0.00011358,0.00011020,0.00002719,0.00009682,0.00008626,0.00001
 327,-0.00001420,0.00012282,-0.00002998,-0.00006573,0.00011075,0.000016
 07,-0.00001657,-0.00003564,-0.00001851,0.00002041,-0.00002553,0.000005
 42,0.00000603,-0.00003519,-0.00000746,-0.00001188,0.29818020,0.0000431
 3,0.00000748,-0.00001668,0.00003569,-0.00011173,-0.00002115,-0.0000011
 2,-0.00004659,-0.00003017,0.00006622,0.00013269,0.00006357,0.00000580,
 0.00003828,0.00002120,0.00002410,0.00001003,0.00000971,0.00000541,-0.0
 0000698,-0.00000188,-0.00001843,0.00000257,0.00000275,0.00000838,0.000
 01267,0.00000378,-0.00001498,-0.00000146,0.00000326,-0.00001090,-0.000
 02736,-0.00000443,-0.00001954,0.00002689,-0.00002398,0.00000079,0.0000
 0521,-0.00000641,-0.00000225,-0.00000413,0.00000104,-0.00000124,-0.000
 00045,-0.00000076,0.00000488,0.00000781,-0.00000131,0.00005515,-0.0000
 6268,-0.00000857,-0.00003896,-0.00001337,-0.00001334,0.00001640,0.0000
 4995,-0.00004704,-0.00000188,-0.00000328,0.00001240,0.00000234,-0.0000
 0719,-0.00001319,-0.00001056,0.00001932,-0.00000173,-0.00001070,0.0000
 0812,0.00012403,-0.00000856,-0.00000064,-0.00003182,0.00001125,-0.0000
 0868,0.00000796,-0.00000181,0.00000282,0.00000365,-0.00000236,0.000003
 11,0.00001350,-0.00000317,0.00000372,-0.00001504,-0.00000305,0.0000014
 7,-0.00000386,0.00000828,0.00001207,-0.00000275,0.00000144,-0.00000551
 ,-0.00000218,-0.00000278,0.00000475,-0.00000267,-0.00000300,0.00001092
 ,-0.00000601,0.00003189,-0.00000981,-0.00002899,0.00000182,-0.00000059
 ,-0.00000291,-0.00000139,0.00000089,0.00000201,0.00000020,-0.00000040,
 0.00000158,0.00000038,0.00000020,-0.00000048,-0.00000021,0.00000060,0.
 00000018,0.00000002,0.00000064,0.00000029,-0.00000028,-0.00000010,-0.0
 0000027,0.00000029,-0.00000046,0.00000075,-0.00000011,-0.00000224,0.00
 000012,-0.00000029,0.00000136,-0.00000080,0.00000042,0.00000090,-0.000
 00077,-0.00000045,0.00000005,0.00000146,0.00000030,-0.00000016,0.00000
 128,-0.00000025,0.00000011,0.00000147,0.00000020,0.00000047,-0.0000008
 1,0.00000026,-0.00000028,-0.00000036,0.00000128,0.00000020,0.00000016,
 0.,-0.00000061,-0.00000039,0.00000022,-0.00000037,-0.00000032,-0.00000
 032,-0.00000024,0.00000001,0.00000178,0.00000144,0.00000440,-0.0000024
 5,0.00000128,-0.00000347,0.00000096,-0.00000191,-0.00000160,-0.0000009
 1,0.00000027,-0.00000089,0.00000189,-0.00000494,0.00000073,0.00000069,
 0.00000002,-0.00000217,0.00000084,-0.00000005,0.00000008,-0.00000027,-
 0.00000057,0.,-0.00000049,-0.00000040,-0.00000039,0.00000061,0.0000001
 0,0.00000011,-0.00000091,0.00000015,-0.00000011,0.00000088,-0.00000010
 ,-0.00000032,-0.00000007,0.00000068,0.00000037,-0.00000037,-0.00000063
 ,-0.00000009,0.00000022,0.00000024,-0.00000066,-0.00000053,0.00000028,
 0.00000064,0.00000083,0.00000036,0.00000225,-0.00000066,-0.00000084,-0
 .00000187,0.00000186,0.00000093,0.00000024,-0.00000119,-0.00000009,0.0
 0000069,-0.00000120,-0.00000708,0.00000130,0.00000630,-0.00000437,-0.0
 0000306,-0.00000092,0.00000167,0.00000218,-0.00000651,0.00000787,-0.00
 000880,-0.00000272,-0.00000372,0.00000274,0.00000048,-0.00000242,-0.00
 000124,-0.00000342,0.00000020,0.00000038,0.00000013,0.00000325,0.00000
 075,-0.00000643,0.00000421,0.00000425,-0.00004977,-0.00685665,-0.00255
 675,-0.00125046,0.00179031,0.00091160,0.02672911,0.00656752,-0.0081252
 7,-0.00046256,0.00099247,0.00085028,-0.00080285,0.00099010,0.00037647,
 -0.00004172,-0.00044499,0.00002160,0.00012852,0.00001606,-0.00008148,0
 .00001852,0.00002455,-0.00001002,0.00195248,0.00088025,-0.00069978,0.0
 0006100,0.00034044,0.00007078,0.00001249,-0.00002386,0.00001653,-0.000
 01947,-0.00003470,-0.00000613,-0.00006598,0.00002438,-0.00001524,-0.06
 129417,-0.06289784,0.01945443,-0.02332030,-0.00533666,0.00534703,-0.00
 649698,-0.00319767,0.00366345,-0.00047803,0.00006566,-0.00015957,0.000
 10764,-0.00006859,-0.00005303,0.00005401,-0.00000381,-0.00000309,0.000
 11741,0.00003107,-0.00006676,0.00004130,-0.00000553,-0.00000940,-0.000
 01311,-0.00000429,0.00000656,-0.00001020,0.00000869,0.00000373,-0.0000
 1234,-0.00000078,-0.00000193,0.06493903,0.06709803,0.00000138,-0.00001
 475,0.00000992,-0.00004672,0.00007366,0.00005478,-0.00002009,-0.000057
 84,0.00002697,-0.00005990,-0.00007581,-0.00003936,-0.00002304,-0.00002
 223,-0.00001157,-0.00004879,-0.00000596,0.00000698,0.00000569,0.000008
 17,0.00000379,0.00001542,-0.00001949,-0.00000604,-0.00001647,0.0000111
 6,0.00000480,0.00002848,0.00000192,-0.00000054,0.00003579,0.00002237,0
 .00001828,0.00001448,-0.00000330,0.00001420,-0.00000042,0.00000355,-0.
 00000073,-0.00000154,-0.00000171,0.00000132,0.00000156,0.00000106,0.00
 000005,-0.00000316,-0.00000025,-0.00000069,-0.00000261,-0.00000401,0.0
 0001065,-0.00000552,-0.00001706,-0.00001386,0.00001114,-0.00000052,-0.
 00010591,-0.00000393,0.00001948,-0.00005426,0.00002487,-0.00006529,-0.
 00002130,-0.00013283,-0.00005798,-0.00003970,-0.00007288,0.00008970,0.
 00013281,0.00000969,-0.00000611,0.00009471,0.00011940,0.00007934,0.000
 06992,-0.00007198,-0.00005156,-0.00003613,-0.00003857,0.00002042,-0.00
 007144,0.00000234,-0.00000316,0.00002765,0.00000974,-0.00001321,0.0000
 1444,0.00007799,0.00005097,0.00004124,0.00003788,0.00000367,-0.0000118
 7,-0.00002112,0.00002115,-0.00000461,-0.00001790,0.00003487,0.00000299
 ,0.00006711,-0.00004668,-0.00002241,-0.00000382,0.00000260,0.00000041,
 0.00000236,-0.00000224,-0.00000100,-0.00000006,0.00000279,-0.00000327,
 -0.00000145,-0.00000099,0.00000122,-0.00000122,0.00000153,-0.00000163,
 0.00000073,-0.00000106,0.00000036,0.,-0.00000069,0.00000062,-0.0000001
 8,0.00000144,-0.00000324,0.00000289,0.00000158,-0.00000377,0.00000168,
 -0.00000104,0.00000094,-0.00000361,-0.00000158,-0.00000035,-0.00000127
 ,0.00000192,-0.00000228,0.00000354,0.00000149,-0.00000497,-0.00000100,
 -0.00000175,-0.00000348,-0.00000344,-0.00000049,-0.00000002,0.00000072
 ,0.00000173,0.00000156,0.00000267,-0.00000111,0.00000004,0.00000155,-0
 .00000283,-0.00000061,0.00000083,0.00000093,-0.00000179,-0.00000205,-0
 .00000096,0.00000133,0.00000532,-0.00000054,0.00000582,-0.00000607,0.,
 -0.00000673,0.00000381,-0.00000459,-0.00000094,-0.00000170,0.00000364,
 0.00000051,0.00000402,-0.00000606,-0.00000161,0.00000270,-0.00000347,-
 0.00000285,-0.00000067,0.00000148,0.00000053,-0.00000092,0.00000143,0.
 00000200,0.00000185,-0.00000204,-0.00000071,0.00000196,-0.00000294,0.0
 0000041,-0.00000213,0.00000106,-0.00000115,0.00000049,0.00000182,-0.00
 000022,-0.00000312,0.00000143,-0.00000049,0.00000218,0.00000147,-0.000
 00254,-0.00000371,-0.00000473,-0.00000300,-0.00000124,0.00000222,0.000
 00127,-0.00000515,0.00000144,0.00001124,-0.00000418,-0.00000781,-0.000
 00345,0.00000465,0.00000336,-0.00000227,-0.00000305,0.00000284,0.00000
 212,0.00001804,-0.00003981,-0.00001634,0.00000108,0.00000528,0.0000001
 4,-0.00000848,0.00000063,0.00000253,-0.00000974,0.00001364,-0.00000217
 ,-0.00000388,-0.00001699,-0.00001794,-0.00000052,0.00000165,0.00000940
 ,0.00000286,0.00001255,0.00000294,-0.00000493,0.00000012,-0.00000731,0
 .00000951,-0.00000276,0.00000175,0.00008009,-0.00300857,-0.00053919,0.
 00004979,-0.00007359,0.00058023,0.01370000,0.00462689,-0.00513712,-0.0
 0051121,0.00009866,0.00051809,-0.00016014,0.00069707,0.00009110,-0.000
 06956,-0.00028352,0.00000786,0.00009041,-0.00001106,-0.00005806,-0.000
 01926,0.00000569,-0.00000317,0.00121252,0.00022039,-0.00037771,0.00010
 386,0.00024132,0.00001569,-0.00001579,-0.00003097,0.00001097,-0.000009
 01,-0.00003062,-0.00001210,-0.00003568,-0.00000520,0.00000143,0.071012
 45,0.01908989,-0.07089137,0.01848893,0.00350014,-0.00603482,-0.0240067
 7,-0.00601442,0.00971379,0.00075843,0.00054480,-0.00007340,-0.00031817
 ,-0.00034672,0.00031353,-0.00008615,-0.00010279,0.00010089,-0.00013775
 ,-0.00014476,0.00006684,-0.00005770,-0.00000777,0.00000458,0.00001824,
 0.00000907,-0.00000931,0.00001254,-0.00000279,-0.00000247,0.00001879,0
 .00000429,0.00000817,-0.07999218,-0.01891554,0.07165944\\0.00000119,0.
 00000700,0.00000343,-0.00000122,0.00000842,0.00000282,0.00000039,-0.00
 000364,-0.00000366,0.00000508,-0.00000194,-0.00000118,-0.00000590,-0.0
 0000534,-0.00000147,-0.00000106,0.00000279,0.00000024,0.00000136,0.000
 00292,0.00000229,0.00000212,-0.00000716,-0.00000041,-0.00000582,0.0000
 0393,0.00000305,0.00000106,0.00000078,0.00000104,0.,-0.00000347,0.0000
 0023,-0.00000019,0.00000185,0.00000011,0.00000313,0.00000333,0.0000007
 8,0.00000030,-0.00000146,0.00000073,0.00000118,-0.00000132,0.00000075,
 0.00000169,-0.00000341,-0.00000088,-0.00000059,-0.00000496,-0.00000329
 ,0.00000036,-0.00000273,0.00000048,0.00000323,-0.00000197,-0.00000464,
 0.00000177,-0.00000081,0.00000252,0.00000241,-0.00000200,0.00000267,-0
 .00000071,-0.00000014,0.00000104,0.00000210,-0.00000180,-0.00000023,0.
 00000579,-0.00000339,0.00000344,0.00000093,0.00000191,0.00000432,-0.00
 000158,-0.00000487,0.00000100,-0.00000707,0.00000054,-0.00000226,0.000
 00426,-0.00000123,-0.00000173,-0.00000104,0.00000005,-0.00000423,0.000
 00200,0.00000260,-0.00000215,0.00000315,-0.00000254,-0.00000180,-0.000
 00047,-0.00000291,0.00000335,-0.00000557,0.00000108,0.00000519,-0.0000
 0303,0.00000252,-0.00000025,-0.00000103,0.00000631,0.00000042,0.000002
 58,-0.00000149,-0.00000176,0.00000310,-0.00000407,0.00000372,0.0000015
 0,-0.00000061,0.00000057,-0.00000072,0.00000397,-0.00000342,0.00000131
 ,-0.00000210,0.00000047,0.00000156,-0.00000054,0.00000135,0.00000311,-
 0.00000200,0.00000359,0.00000033,0.00000325,0.00000627,0.00000030,-0.0
 0000225,-0.00000153,0.00000155,0.00000091,-0.00000038,0.00000276,0.000
 00074,-0.00000456,0.00000511,-0.00000287,0.00000193,0.00000075,0.00000
 013,-0.00000006,-0.00000164,-0.00000026,-0.00000005,-0.00000109,0.0000
 0254,-0.00000047,-0.00000218,-0.00000032,0.00000193,-0.00000155,0.,0.0
 0000033,-0.00000045,-0.00000107,-0.00000061,-0.00000127,-0.00000021,-0
 .00000046,0.00000314,0.00000028,-0.00000621,-0.00000181,0.00000112,0.0
 0000256,-0.00000266,0.00000036,0.00000018,-0.00000394,-0.00000112,0.00
 000107,0.00000352,-0.00000127,0.00000024,-0.00000027,-0.00000043,0.000
 00090,-0.00000112,-0.00000137,0.00000055,-0.00000138,-0.00000003,-0.00
 000053,0.00000418,0.00000445,0.00000248,0.00000007,-0.00000374,0.00000
 147,-0.00000156,-0.00000182,-0.00000208,-0.00000370,-0.00000334,0.0000
 0160,-0.00000216,-0.00000384,-0.00000025,-0.00000090,0.00000438,-0.000
 00570,0.00000358,0.00000337,-0.00000090,-0.00000060,0.00000161,0.00000
 100,-0.00000030,-0.00000136,0.00000115,0.00000026,0.00000230,-0.000001
 07,-0.00000228,0.00000172,-0.00000308,-0.00000057,0.00000080,-0.000000
 57,0.00000028,-0.00000178,0.00000188,-0.00000119,0.00000145,-0.0000026
 3,-0.00000081,0.00000082,-0.00000136,-0.00000149,0.00000164,-0.0000006
 9,0.00000195,-0.00000126,-0.00000094,0.00000022,0.00000589,-0.00000385
 ,-0.00000016,0.00000199,-0.00000041,-0.00000048,0.00000081,-0.00000187
 ,-0.00000138,0.00000145,0.00000251,-0.00000241,0.00000311,0.00000163,-
 0.00000121,-0.00000380,-0.00000017,-0.00000180,0.00000811,0.00000336,-
 0.00000063,-0.00000153,-0.00000008,-0.00000204,-0.00000100,-0.00000187
 ,-0.00000330,0.00000381,0.00000081,0.00000063,-0.00000217,0.00000161,-
 0.00000044,-0.00000155,-0.00000013,0.00000400,-0.00000140,-0.00000160,
 -0.00000580,0.00000638,-0.00000368,-0.00000111,-0.00000255,0.00000493,
 0.00000188,-0.00000246,-0.00000155,-0.00000027,0.00000024,-0.00000245,
 0.00000076,-0.00000160,-0.00000595,-0.00000136,-0.00000125,-0.00000184
 ,-0.00000047,0.00000054,0.00000036,-0.00000151,-0.00000118,-0.00000177
 ,0.00000092,0.00000225,0.00000096,0.00000262,0.00000175,-0.00000207,-0
 .00000003,0.00000155,0.00000163,-0.00000421,-0.00000266,-0.00000077,0.
 00000250,0.00000321,-0.00000180,0.00000070,-0.00000408,0.00000110,0.00
 000202,0.,0.00000617,-0.00000117,0.00000051,-0.00000082\\\@
 The archive entry for this job was punched.


 THERE ARE PEOPLE SO ADDICTED TO EXAGERATING THEY
 CAN'T TELL THE TRUTH WITHOUT LYING. -- FORTUNE COOKIE
 Job cpu time:       2 days  0 hours 31 minutes 45.7 seconds.
 Elapsed time:       0 days  3 hours  5 minutes 22.2 seconds.
 File lengths (MBytes):  RWF=   9700 Int=      0 D2E=      0 Chk=     55 Scr=      1
 Normal termination of Gaussian 16 at Sat Dec  7 21:57:18 2024.
