/mnt/lustre/scratch/nvme/SLURM/9663806/usccqdma.VBy9s067Qd
OMP_STACKSIZE=0m
GAUSS_PDEF=16
GAUSS_MDEF=65536MB
GAUSS_RDEF=SCF=Direct
 Entering Gaussian System, Link 0=g16.exe
 Initial command:
 /opt/cesga/2020/software/Core/g16/c1/l1.exe "/mnt/lustre/scratch/nvme/SLURM/9663806/usccqdma.VBy9s067Qd/Gau-1357854.inp" -scrdir="/mnt/lustre/scratch/nvme/SLURM/9663806/usccqdma.VBy9s067Qd/"
 Default is to use a total of  16 processors:
                               16 via shared-memory
                                1 via Linda
 Entering Link 1 = /opt/cesga/2020/software/Core/g16/c1/l1.exe PID=   1357880.
  
 Copyright (c) 1988-2019, Gaussian, Inc.  All Rights Reserved.
  
 This is part of the Gaussian(R) 16 program.  It is based on
 the Gaussian(R) 09 system (copyright 2009, Gaussian, Inc.),
 the Gaussian(R) 03 system (copyright 2003, Gaussian, Inc.),
 the Gaussian(R) 98 system (copyright 1998, Gaussian, Inc.),
 the Gaussian(R) 94 system (copyright 1995, Gaussian, Inc.),
 the Gaussian 92(TM) system (copyright 1992, Gaussian, Inc.),
 the Gaussian 90(TM) system (copyright 1990, Gaussian, Inc.),
 the Gaussian 88(TM) system (copyright 1988, Gaussian, Inc.),
 the Gaussian 86(TM) system (copyright 1986, Carnegie Mellon
 University), and the Gaussian 82(TM) system (copyright 1983,
 Carnegie Mellon University). Gaussian is a federally registered
 trademark of Gaussian, Inc.
  
 This software contains proprietary and confidential information,
 including trade secrets, belonging to Gaussian, Inc.
  
 This software is provided under written license and may be
 used, copied, transmitted, or stored only in accord with that
 written license.
  
 The following legend is applicable only to US Government
 contracts under FAR:
  
                    RESTRICTED RIGHTS LEGEND
  
 Use, reproduction and disclosure by the US Government is
 subject to restrictions as set forth in subparagraphs (a)
 and (c) of the Commercial Computer Software - Restricted
 Rights clause in FAR 52.227-19.
  
 Gaussian, Inc.
 340 Quinnipiac St., Bldg. 40, Wallingford CT 06492
  
  
 ---------------------------------------------------------------
 Warning -- This program may not be used in any manner that
 competes with the business of Gaussian, Inc. or will provide
 assistance to any competitor of Gaussian, Inc.  The licensee
 of this program is prohibited from giving any competitor of
 Gaussian, Inc. access to this program.  By using this program,
 the user acknowledges that Gaussian, Inc. is engaged in the
 business of creating and licensing software in the field of
 computational chemistry and represents and warrants to the
 licensee that it is not a competitor of Gaussian, Inc. and that
 it will not use this program in any manner prohibited above.
 ---------------------------------------------------------------
  

 Cite this work as:
 Gaussian 16, Revision C.01,
 M. J. Frisch, G. W. Trucks, H. B. Schlegel, G. E. Scuseria, 
 M. A. Robb, J. R. Cheeseman, G. Scalmani, V. Barone, 
 G. A. Petersson, H. Nakatsuji, X. Li, M. Caricato, A. V. Marenich, 
 J. Bloino, B. G. Janesko, R. Gomperts, B. Mennucci, H. P. Hratchian, 
 J. V. Ortiz, A. F. Izmaylov, J. L. Sonnenberg, D. Williams-Young, 
 F. Ding, F. Lipparini, F. Egidi, J. Goings, B. Peng, A. Petrone, 
 T. Henderson, D. Ranasinghe, V. G. Zakrzewski, J. Gao, N. Rega, 
 G. Zheng, W. Liang, M. Hada, M. Ehara, K. Toyota, R. Fukuda, 
 J. Hasegawa, M. Ishida, T. Nakajima, Y. Honda, O. Kitao, H. Nakai, 
 T. Vreven, K. Throssell, J. A. Montgomery, Jr., J. E. Peralta, 
 F. Ogliaro, M. J. Bearpark, J. J. Heyd, E. N. Brothers, K. N. Kudin, 
 V. N. Staroverov, T. A. Keith, R. Kobayashi, J. Normand, 
 K. Raghavachari, A. P. Rendell, J. C. Burant, S. S. Iyengar, 
 J. Tomasi, M. Cossi, J. M. Millam, M. Klene, C. Adamo, R. Cammi, 
 J. W. Ochterski, R. L. Martin, K. Morokuma, O. Farkas, 
 J. B. Foresman, and D. J. Fox, Gaussian, Inc., Wallingford CT, 2019.
 
 ******************************************
 Gaussian 16:  ES64L-G16RevC.01  3-Jul-2019
                 7-Dec-2024 
 ******************************************
 Default route: SCF=Direct
 ----------------------------------------------------
 # m06/genecp scf=tight int=ultrafine 5d freq=noraman
 ----------------------------------------------------
 1/10=4,30=1,38=1/1,3;
 2/12=2,17=6,18=5,40=1/2;
 3/5=7,8=1,11=2,16=1,17=8,25=1,30=1,71=2,74=-54,75=-5,140=1/1,2,3;
 4//1;
 5/5=2,32=2,38=5,98=1/2;
 8/6=4,10=90,11=11/1;
 11/6=1,8=1,9=11,15=111,16=1/1,2,10;
 10/6=1/2;
 6/7=2,8=2,9=2,10=2,28=1/1;
 7/8=1,10=1,25=1/1,2,3,16;
 1/10=4,30=1/3;
 99//99;
 ------
 OPT-TS
 ------
 Symbolic Z-matrix:
 Charge =  0 Multiplicity = 1
 C                     0.24735   3.42103  -0.18772 
 C                    -0.61404   2.88316  -2.26867 
 C                    -0.66272   4.21746  -2.64982 
 C                    -0.23231   5.18172  -1.74711 
 C                     0.22654   4.78158  -0.50154 
 C                     0.73097   2.90703   1.10816 
 C                     1.23322   1.04085   2.40611 
 C                     1.62361   1.83047   3.47684 
 C                     1.55495   3.21275   3.34915 
 C                     1.10394   3.75163   2.15574 
 H                    -0.95547   2.08062  -2.91928 
 H                    -0.24847   6.23759  -2.00984 
 H                     0.57776   5.52551   0.20844 
 H                     1.27025  -0.04747   2.44082 
 H                     1.84706   3.86555   4.16921 
 H                     1.03563   4.82968   2.04128 
 N                    -0.17054   2.49656  -1.07032 
 N                     0.79627   1.56287   1.24876 
 Ir                    0.19005   0.31638  -0.44787 
 O                    -2.5124    1.11864   0.9929 
 O                     1.60397  -1.74426   1.24723 
 O                    -2.22292   0.30378  -2.27993 
 B                     0.70391  -1.53293   0.19329 
 B                    -1.49022   0.18943   0.87044 
 B                    -1.62588  -0.37416  -1.21701 
 O                    -2.33946  -1.52517  -0.9202 
 O                    -1.46124  -0.65379   1.96521 
 C                    -2.65394  -0.43558   2.73525 
 C                    -3.05234   1.01326   2.32361 
 C                    -3.46321  -0.35436  -2.58295 
 C                    -3.2112   -1.78477  -2.02972 
 C                     1.54742  -3.1329    1.61168 
 C                     1.04675  -3.80056   0.29467 
 O                     0.30224  -2.74896  -0.32775 
 C                    -4.54341   1.27814   2.27706 
 H                    -4.72555   2.31097   1.95338 
 H                    -5.05516   0.6103    1.57513 
 H                    -4.99413   1.1486    3.27167 
 C                    -2.3662    2.085     3.16074 
 H                    -1.28636   1.8997    3.24065 
 H                    -2.50729   3.05738   2.67067 
 H                    -2.78361   2.14405   4.17495 
 C                    -3.66217  -1.48641   2.29433 
 H                    -3.89274  -1.38356   1.22673 
 H                    -3.218    -2.48047   2.43508 
 H                    -4.59223  -1.43473   2.87639 
 C                    -2.32059  -0.61372   4.20338 
 H                    -3.17743  -0.3476    4.83905 
 H                    -2.0681   -1.66379   4.4003 
 H                    -1.45944  -0.00163   4.49823 
 C                     2.92272  -3.57238   2.07185 
 H                     3.19649  -3.03202   2.98817 
 H                     2.93635  -4.64849   2.29721 
 H                     3.68956  -3.36443   1.31644 
 C                     0.54864  -3.24835   2.75543 
 H                    -0.44672  -2.92052   2.43229 
 H                     0.48846  -4.27227   3.14833 
 H                     0.86646  -2.58415   3.57201 
 C                     2.1725   -4.18965  -0.65495 
 H                     2.73767  -5.05701  -0.28737 
 H                     1.73494  -4.4487   -1.6275 
 H                     2.87193  -3.3598   -0.81959 
 C                     0.12721  -4.99014   0.49933 
 H                     0.63269  -5.78917   1.06117 
 H                    -0.78663  -4.70438   1.03173 
 H                    -0.16684  -5.39737  -0.47671 
 C                    -4.44641  -2.50913  -1.53642 
 H                    -4.15867  -3.48237  -1.11841 
 H                    -4.96805  -1.94626  -0.7537 
 H                    -5.14978  -2.68657  -2.36265 
 C                    -2.43344  -2.67684  -2.9897 
 H                    -1.54044  -2.16582  -3.37456 
 H                    -2.09138  -3.56149  -2.43851 
 H                    -3.04701  -3.00401  -3.84001 
 C                    -3.70574  -0.28908  -4.07736 
 H                    -3.86964   0.75219  -4.38412 
 H                    -2.85222  -0.6786   -4.64293 
 H                    -4.60088  -0.8656   -4.35194 
 C                    -4.56371   0.39132  -1.84076 
 H                    -4.39384   0.36591  -0.75634 
 H                    -4.54559   1.44387  -2.15068 
 H                    -5.55889  -0.01699  -2.06333 
 H                     0.05661  -0.52882  -1.82387 
 C                     4.56227   0.01499  -1.62686 
 O                     5.07821   0.31532  -2.69493 
 N                     5.24948   0.17042  -0.43598 
 C                     2.21423   0.66958  -1.18448 
 C                     3.13698  -0.5065   -1.5411 
 C                     2.74615  -1.16622  -2.85242 
 C                     6.56904   0.75616  -0.47021 
 C                     4.71834  -0.01796   0.89337 
 H                     7.28684   0.11716   0.06605 
 H                     6.57318   1.74866   0.00973 
 H                     6.87506   0.8602   -1.51345 
 H                     2.70681   1.30781  -0.43001 
 H                     2.1238    1.29838  -2.08867 
 H                     2.76703  -0.43365  -3.66893 
 H                     1.73458  -1.58782  -2.77704 
 H                     3.43933  -1.97458  -3.1215 
 H                     4.62      0.95199   1.4135 
 H                     5.40591  -0.64176   1.48693 
 H                     3.73727  -0.50177   0.89292 
 H                     3.08788  -1.26515  -0.74609 
 H                     1.97419   1.35958   4.39165 
 H                    -1.02803   4.48752  -3.63732 
 

 GradGradGradGradGradGradGradGradGradGradGradGradGradGradGradGradGradGrad
 Berny optimization.
 Initialization pass.
 Trust Radius=3.00D-01 FncErr=1.00D-07 GrdErr=1.00D-07 EigMax=2.50D+02 EigMin=1.00D-04
 Number of steps in this run=      2 maximum allowed number of steps=      2.
 GradGradGradGradGradGradGradGradGradGradGradGradGradGradGradGradGradGrad

 Stoichiometry    C34H57B3IrN3O7
 Framework group  C1[X(C34H57B3IrN3O7)]
 Deg. of freedom   309
 Full point group                 C1      NOp   1
 Largest Abelian subgroup         C1      NOp   1
 Largest concise Abelian subgroup C1      NOp   1
                         Standard orientation:                         
 ---------------------------------------------------------------------
 Center     Atomic      Atomic             Coordinates (Angstroms)
 Number     Number       Type             X           Y           Z
 ---------------------------------------------------------------------
      1          6           0        0.247350    3.421029   -0.187721
      2          6           0       -0.614040    2.883159   -2.268671
      3          6           0       -0.662720    4.217459   -2.649821
      4          6           0       -0.232310    5.181719   -1.747111
      5          6           0        0.226540    4.781579   -0.501541
      6          6           0        0.730970    2.907029    1.108159
      7          6           0        1.233220    1.040849    2.406109
      8          6           0        1.623610    1.830469    3.476839
      9          6           0        1.554950    3.212749    3.349149
     10          6           0        1.103940    3.751629    2.155739
     11          1           0       -0.955470    2.080619   -2.919281
     12          1           0       -0.248470    6.237589   -2.009841
     13          1           0        0.577760    5.525509    0.208439
     14          1           0        1.270250   -0.047471    2.440819
     15          1           0        1.847060    3.865549    4.169209
     16          1           0        1.035630    4.829679    2.041279
     17          7           0       -0.170540    2.496559   -1.070321
     18          7           0        0.796270    1.562869    1.248759
     19         77           0        0.190050    0.316379   -0.447871
     20          8           0       -2.512400    1.118640    0.992899
     21          8           0        1.603970   -1.744261    1.247229
     22          8           0       -2.222920    0.303780   -2.279931
     23          5           0        0.703910   -1.532931    0.193289
     24          5           0       -1.490220    0.189429    0.870439
     25          5           0       -1.625880   -0.374161   -1.217011
     26          8           0       -2.339460   -1.525170   -0.920201
     27          8           0       -1.461240   -0.653791    1.965209
     28          6           0       -2.653940   -0.435580    2.735249
     29          6           0       -3.052340    1.013260    2.323609
     30          6           0       -3.463210   -0.354360   -2.582951
     31          6           0       -3.211200   -1.784770   -2.029721
     32          6           0        1.547420   -3.132901    1.611679
     33          6           0        1.046749   -3.800561    0.294669
     34          8           0        0.302240   -2.748961   -0.327751
     35          6           0       -4.543410    1.278140    2.277059
     36          1           0       -4.725550    2.310970    1.953379
     37          1           0       -5.055160    0.610300    1.575129
     38          1           0       -4.994130    1.148600    3.271669
     39          6           0       -2.366200    2.085000    3.160739
     40          1           0       -1.286360    1.899699    3.240649
     41          1           0       -2.507290    3.057380    2.670669
     42          1           0       -2.783610    2.144050    4.174949
     43          6           0       -3.662170   -1.486410    2.294329
     44          1           0       -3.892740   -1.383560    1.226729
     45          1           0       -3.218000   -2.480470    2.435079
     46          1           0       -4.592230   -1.434730    2.876389
     47          6           0       -2.320590   -0.613720    4.203379
     48          1           0       -3.177430   -0.347600    4.839049
     49          1           0       -2.068100   -1.663790    4.400299
     50          1           0       -1.459440   -0.001631    4.498229
     51          6           0        2.922719   -3.572381    2.071849
     52          1           0        3.196490   -3.032021    2.988169
     53          1           0        2.936349   -4.648491    2.297209
     54          1           0        3.689560   -3.364431    1.316439
     55          6           0        0.548640   -3.248351    2.755429
     56          1           0       -0.446720   -2.920521    2.432289
     57          1           0        0.488459   -4.272271    3.148329
     58          1           0        0.866460   -2.584151    3.572009
     59          6           0        2.172499   -4.189651   -0.654951
     60          1           0        2.737669   -5.057011   -0.287371
     61          1           0        1.734939   -4.448701   -1.627501
     62          1           0        2.871930   -3.359801   -0.819591
     63          6           0        0.127209   -4.990141    0.499329
     64          1           0        0.632689   -5.789171    1.061169
     65          1           0       -0.786631   -4.704381    1.031729
     66          1           0       -0.166841   -5.397371   -0.476711
     67          6           0       -4.446410   -2.509130   -1.536421
     68          1           0       -4.158670   -3.482370   -1.118411
     69          1           0       -4.968050   -1.946260   -0.753701
     70          1           0       -5.149780   -2.686570   -2.362651
     71          6           0       -2.433440   -2.676840   -2.989701
     72          1           0       -1.540440   -2.165821   -3.374561
     73          1           0       -2.091381   -3.561490   -2.438511
     74          1           0       -3.047010   -3.004010   -3.840011
     75          6           0       -3.705740   -0.289080   -4.077361
     76          1           0       -3.869640    0.752190   -4.384121
     77          1           0       -2.852220   -0.678600   -4.642931
     78          1           0       -4.600880   -0.865600   -4.351941
     79          6           0       -4.563710    0.391320   -1.840761
     80          1           0       -4.393840    0.365910   -0.756341
     81          1           0       -4.545590    1.443870   -2.150681
     82          1           0       -5.558890   -0.016990   -2.063331
     83          1           0        0.056610   -0.528821   -1.823871
     84          6           0        4.562270    0.014989   -1.626861
     85          8           0        5.078210    0.315319   -2.694931
     86          7           0        5.249480    0.170419   -0.435981
     87          6           0        2.214230    0.669579   -1.184481
     88          6           0        3.136980   -0.506501   -1.541101
     89          6           0        2.746150   -1.166221   -2.852421
     90          6           0        6.569040    0.756159   -0.470211
     91          6           0        4.718340   -0.017961    0.893369
     92          1           0        7.286840    0.117159    0.066049
     93          1           0        6.573180    1.748659    0.009729
     94          1           0        6.875060    0.860199   -1.513451
     95          1           0        2.706810    1.307809   -0.430011
     96          1           0        2.123800    1.298379   -2.088671
     97          1           0        2.767030   -0.433651   -3.668931
     98          1           0        1.734580   -1.587821   -2.777041
     99          1           0        3.439330   -1.974581   -3.121501
    100          1           0        4.620000    0.951989    1.413499
    101          1           0        5.405910   -0.641761    1.486929
    102          1           0        3.737270   -0.501771    0.892919
    103          1           0        3.087880   -1.265151   -0.746091
    104          1           0        1.974190    1.359579    4.391649
    105          1           0       -1.028030    4.487519   -3.637321
 ---------------------------------------------------------------------
 Rotational constants (GHZ):           0.0751790           0.0619091           0.0559299
 General basis read from cards:  (5D, 7F)
 ======================================================================================================
                                       Pseudopotential Parameters
 ======================================================================================================
  Center     Atomic      Valence      Angular      Power
  Number     Number     Electrons     Momentum     of R      Exponent        Coefficient   SO-Coeffient
 ======================================================================================================
    1          6
                                   No pseudopotential on this center.
    2          6
                                   No pseudopotential on this center.
    3          6
                                   No pseudopotential on this center.
    4          6
                                   No pseudopotential on this center.
    5          6
                                   No pseudopotential on this center.
    6          6
                                   No pseudopotential on this center.
    7          6
                                   No pseudopotential on this center.
    8          6
                                   No pseudopotential on this center.
    9          6
                                   No pseudopotential on this center.
   10          6
                                   No pseudopotential on this center.
   11          1
                                   No pseudopotential on this center.
   12          1
                                   No pseudopotential on this center.
   13          1
                                   No pseudopotential on this center.
   14          1
                                   No pseudopotential on this center.
   15          1
                                   No pseudopotential on this center.
   16          1
                                   No pseudopotential on this center.
   17          7
                                   No pseudopotential on this center.
   18          7
                                   No pseudopotential on this center.
   19         77           17
                                      G and up 
                                                     1      823.5880147       -0.15780140    0.00000000
                                                     2      364.6613336    -1517.52704460    0.00000000
                                                     2       55.7082801     -316.53065290    0.00000000
                                                     2       12.0464544      -91.88809410    0.00000000
                                                     2        3.5120610       -9.22417730    0.00000000
                                      S - G
                                                     0      188.0490770        3.15780140    0.00000000
                                                     1      340.4194712       26.83225770    0.00000000
                                                     2      128.2373673      800.42500070    0.00000000
                                                     2       33.8644961      369.40506830    0.00000000
                                                     2        4.7560005      242.41718990    0.00000000
                                                     2        3.9649974     -118.21732820    0.00000000
                                      P - G
                                                     0      289.7291139        2.15780140    0.00000000
                                                     1       87.4633789       61.96786100    0.00000000
                                                     2       30.4363766      269.05819860    0.00000000
                                                     2        4.0553412      231.16547930    0.00000000
                                                     2        3.5525341     -133.69526670    0.00000000
                                      D - G
                                                     0      136.4017106        3.15780140    0.00000000
                                                     1       95.0776925       45.93498030    0.00000000
                                                     2       49.2258410      359.03446680    0.00000000
                                                     2       15.0874145      176.47401190    0.00000000
                                                     2        4.0405764       54.51552860    0.00000000
                                      F - G
                                                     0      127.3507908        3.95461970    0.00000000
                                                     1       66.2364374       52.97736550    0.00000000
                                                     2       34.4299229      274.86433830    0.00000000
                                                     2       10.1995721      137.20473380    0.00000000
                                                     2        2.5409702       14.86333050    0.00000000
   20          8
                                   No pseudopotential on this center.
   21          8
                                   No pseudopotential on this center.
   22          8
                                   No pseudopotential on this center.
   23          5
                                   No pseudopotential on this center.
   24          5
                                   No pseudopotential on this center.
   25          5
                                   No pseudopotential on this center.
   26          8
                                   No pseudopotential on this center.
   27          8
                                   No pseudopotential on this center.
   28          6
                                   No pseudopotential on this center.
   29          6
                                   No pseudopotential on this center.
   30          6
                                   No pseudopotential on this center.
   31          6
                                   No pseudopotential on this center.
   32          6
                                   No pseudopotential on this center.
   33          6
                                   No pseudopotential on this center.
   34          8
                                   No pseudopotential on this center.
   35          6
                                   No pseudopotential on this center.
   36          1
                                   No pseudopotential on this center.
   37          1
                                   No pseudopotential on this center.
   38          1
                                   No pseudopotential on this center.
   39          6
                                   No pseudopotential on this center.
   40          1
                                   No pseudopotential on this center.
   41          1
                                   No pseudopotential on this center.
   42          1
                                   No pseudopotential on this center.
   43          6
                                   No pseudopotential on this center.
   44          1
                                   No pseudopotential on this center.
   45          1
                                   No pseudopotential on this center.
   46          1
                                   No pseudopotential on this center.
   47          6
                                   No pseudopotential on this center.
   48          1
                                   No pseudopotential on this center.
   49          1
                                   No pseudopotential on this center.
   50          1
                                   No pseudopotential on this center.
   51          6
                                   No pseudopotential on this center.
   52          1
                                   No pseudopotential on this center.
   53          1
                                   No pseudopotential on this center.
   54          1
                                   No pseudopotential on this center.
   55          6
                                   No pseudopotential on this center.
   56          1
                                   No pseudopotential on this center.
   57          1
                                   No pseudopotential on this center.
   58          1
                                   No pseudopotential on this center.
   59          6
                                   No pseudopotential on this center.
   60          1
                                   No pseudopotential on this center.
   61          1
                                   No pseudopotential on this center.
   62          1
                                   No pseudopotential on this center.
   63          6
                                   No pseudopotential on this center.
   64          1
                                   No pseudopotential on this center.
   65          1
                                   No pseudopotential on this center.
   66          1
                                   No pseudopotential on this center.
   67          6
                                   No pseudopotential on this center.
   68          1
                                   No pseudopotential on this center.
   69          1
                                   No pseudopotential on this center.
   70          1
                                   No pseudopotential on this center.
   71          6
                                   No pseudopotential on this center.
   72          1
                                   No pseudopotential on this center.
   73          1
                                   No pseudopotential on this center.
   74          1
                                   No pseudopotential on this center.
   75          6
                                   No pseudopotential on this center.
   76          1
                                   No pseudopotential on this center.
   77          1
                                   No pseudopotential on this center.
   78          1
                                   No pseudopotential on this center.
   79          6
                                   No pseudopotential on this center.
   80          1
                                   No pseudopotential on this center.
   81          1
                                   No pseudopotential on this center.
   82          1
                                   No pseudopotential on this center.
   83          1
                                   No pseudopotential on this center.
   84          6
                                   No pseudopotential on this center.
   85          8
                                   No pseudopotential on this center.
   86          7
                                   No pseudopotential on this center.
   87          6
                                   No pseudopotential on this center.
   88          6
                                   No pseudopotential on this center.
   89          6
                                   No pseudopotential on this center.
   90          6
                                   No pseudopotential on this center.
   91          6
                                   No pseudopotential on this center.
   92          1
                                   No pseudopotential on this center.
   93          1
                                   No pseudopotential on this center.
   94          1
                                   No pseudopotential on this center.
   95          1
                                   No pseudopotential on this center.
   96          1
                                   No pseudopotential on this center.
   97          1
                                   No pseudopotential on this center.
   98          1
                                   No pseudopotential on this center.
   99          1
                                   No pseudopotential on this center.
  100          1
                                   No pseudopotential on this center.
  101          1
                                   No pseudopotential on this center.
  102          1
                                   No pseudopotential on this center.
  103          1
                                   No pseudopotential on this center.
  104          1
                                   No pseudopotential on this center.
  105          1
                                   No pseudopotential on this center.
 ======================================================================================================
 There are   843 symmetry adapted cartesian basis functions of A   symmetry.
 There are   794 symmetry adapted basis functions of A   symmetry.
   794 basis functions,  1587 primitive gaussians,   843 cartesian basis functions
   185 alpha electrons      185 beta electrons
       nuclear repulsion energy      7724.5206263962 Hartrees.
 NAtoms=  105 NActive=  105 NUniq=  105 SFac= 1.00D+00 NAtFMM=   60 NAOKFM=T Big=T
 Integral buffers will be    131072 words long.
 Raffenetti 2 integral format.
 Two-electron integral symmetry is turned on.
 One-electron integrals computed using PRISM.
   1 Symmetry operations used in ECPInt.
 ECPInt:  NShTT=   48205 NPrTT=  290969 LenC2=   38230 LenP2D=  118811.
 LDataN:  DoStor=T MaxTD1= 6 Len=  172
 NBasis=   794 RedAO= T EigKep=  5.47D-04  NBF=   794
 NBsUse=   794 1.00D-06 EigRej= -1.00D+00 NBFU=   794
 Defaulting to unpruned grid for atomic number  77.
 ExpMin= 2.90D-02 ExpMax= 5.48D+03 ExpMxC= 8.25D+02 IAcc=3 IRadAn=         5 AccDes= 0.00D+00
 Harris functional with IExCor= 1009 and IRadAn=       5 diagonalized for initial guess.
 HarFok:  IExCor= 1009 AccDes= 0.00D+00 IRadAn=         5 IDoV= 1 UseB2=F ITyADJ=14
 ICtDFT=  3500011 ScaDFX=  1.000000  1.000000  1.000000  1.000000
 Defaulting to unpruned grid for atomic number  77.
 FoFCou: FMM=F IPFlag=           0 FMFlag=      100000 FMFlg1=        2001
         NFxFlg=           0 DoJE=T BraDBF=F KetDBF=T FulRan=T
         wScrn=  0.000000 ICntrl=       500 IOpCl=  0 I1Cent=   200000004 NGrid=           0
         NMat0=    1 NMatS0=      1 NMatT0=    0 NMatD0=    1 NMtDS0=    0 NMtDT0=    0
 Petite list used in FoFCou.
 Requested convergence on RMS density matrix=1.00D-08 within 128 cycles.
 Requested convergence on MAX density matrix=1.00D-06.
 Requested convergence on             energy=1.00D-06.
 No special actions if energy rises.
 Defaulting to unpruned grid for atomic number  77.
 Defaulting to unpruned grid for atomic number  77.
 Defaulting to unpruned grid for atomic number  77.
 Defaulting to unpruned grid for atomic number  77.
 Defaulting to unpruned grid for atomic number  77.
 Defaulting to unpruned grid for atomic number  77.
 Defaulting to unpruned grid for atomic number  77.
 Defaulting to unpruned grid for atomic number  77.
 Defaulting to unpruned grid for atomic number  77.
 Defaulting to unpruned grid for atomic number  77.
 Defaulting to unpruned grid for atomic number  77.
 Defaulting to unpruned grid for atomic number  77.
 Defaulting to unpruned grid for atomic number  77.
 Defaulting to unpruned grid for atomic number  77.
 Defaulting to unpruned grid for atomic number  77.
 Defaulting to unpruned grid for atomic number  77.
 SCF Done:  E(RM06) =  -2198.95584027     A.U. after   16 cycles
            NFock= 16  Conv=0.74D-08     -V/T= 2.0403
 DoSCS=F DFT=T ScalE2(SS,OS)=  1.000000  1.000000
 Range of M.O.s used for correlation:     1   794
 NBasis=   794 NAE=   185 NBE=   185 NFC=     0 NFV=     0
 NROrb=    794 NOA=   185 NOB=   185 NVA=   609 NVB=   609

 **** Warning!!: The largest alpha MO coefficient is  0.13496351D+02

   1 Symmetry operations used in ECPInt.
 ECPInt:  NShTT=   48205 NPrTT=  290969 LenC2=   38230 LenP2D=  118811.
 LDataN:  DoStor=T MaxTD1= 7 Len=  274
 Number of processors reduced to   8 by ecpmxn.
 Symmetrizing basis deriv contribution to polar:
 IMax=3 JMax=2 DiffMx= 0.00D+00
 G2DrvN: will do   106 centers at a time, making    1 passes.
 Calling FoFCou, ICntrl=  3107 FMM=T I1Cent=   0 AccDes= 0.00D+00.
 Defaulting to unpruned grid for atomic number  77.
 Defaulting to unpruned grid for atomic number  77.
 Defaulting to unpruned grid for atomic number  77.
 Defaulting to unpruned grid for atomic number  77.
 Defaulting to unpruned grid for atomic number  77.
 Defaulting to unpruned grid for atomic number  77.
 Defaulting to unpruned grid for atomic number  77.
 Defaulting to unpruned grid for atomic number  77.
 Defaulting to unpruned grid for atomic number  77.
 Defaulting to unpruned grid for atomic number  77.
 Defaulting to unpruned grid for atomic number  77.
 Defaulting to unpruned grid for atomic number  77.
 Defaulting to unpruned grid for atomic number  77.
 Defaulting to unpruned grid for atomic number  77.
 Defaulting to unpruned grid for atomic number  77.
 Defaulting to unpruned grid for atomic number  77.
 End of G2Drv F.D. properties file   721 does not exist.
 End of G2Drv F.D. properties file   722 does not exist.
 End of G2Drv F.D. properties file   788 does not exist.
          IDoAtm=11111111111111111111111111111111111111111111111111
          IDoAtm=11111111111111111111111111111111111111111111111111
          IDoAtm=11111
          Differentiating once with respect to electric field.
                with respect to dipole field.
          Differentiating once with respect to nuclear coordinates.
 Defaulting to unpruned grid for atomic number  77.
 CalDSu exits because no D1Ps are significant.
 Defaulting to unpruned grid for atomic number  77.
 Defaulting to unpruned grid for atomic number  77.
 Defaulting to unpruned grid for atomic number  77.
 Defaulting to unpruned grid for atomic number  77.
 Defaulting to unpruned grid for atomic number  77.
 Defaulting to unpruned grid for atomic number  77.
 Defaulting to unpruned grid for atomic number  77.
 Defaulting to unpruned grid for atomic number  77.
 Defaulting to unpruned grid for atomic number  77.
 Defaulting to unpruned grid for atomic number  77.
 Defaulting to unpruned grid for atomic number  77.
 Defaulting to unpruned grid for atomic number  77.
 Defaulting to unpruned grid for atomic number  77.
 Defaulting to unpruned grid for atomic number  77.
 Defaulting to unpruned grid for atomic number  77.
 Defaulting to unpruned grid for atomic number  77.
          There are   318 degrees of freedom in the 1st order CPHF.  IDoFFX=6 NUNeed=     3.
    315 vectors produced by pass  0 Test12= 1.13D-13 1.00D-09 XBig12= 4.47D+02 8.26D+00.
 AX will form    72 AO Fock derivatives at one time.
    315 vectors produced by pass  1 Test12= 1.13D-13 1.00D-09 XBig12= 6.28D+01 1.00D+00.
    315 vectors produced by pass  2 Test12= 1.13D-13 1.00D-09 XBig12= 6.80D-01 5.97D-02.
    315 vectors produced by pass  3 Test12= 1.13D-13 1.00D-09 XBig12= 3.94D-03 5.18D-03.
    315 vectors produced by pass  4 Test12= 1.13D-13 1.00D-09 XBig12= 1.04D-05 3.41D-04.
    274 vectors produced by pass  5 Test12= 1.13D-13 1.00D-09 XBig12= 1.78D-08 9.86D-06.
     75 vectors produced by pass  6 Test12= 1.13D-13 1.00D-09 XBig12= 2.41D-11 2.84D-07.
      3 vectors produced by pass  7 Test12= 1.13D-13 1.00D-09 XBig12= 3.03D-14 9.87D-09.
 InvSVY:  IOpt=1 It=  1 EMax= 1.42D-14
 Solved reduced A of dimension  1927 with   318 vectors.
 Isotropic polarizability for W=    0.000000      472.71 Bohr**3.
 End of Minotr F.D. properties file   721 does not exist.
 End of Minotr F.D. properties file   722 does not exist.
 End of Minotr F.D. properties file   788 does not exist.
 Hyperfine terms turned off by default for NAtoms > 100.

 **********************************************************************

            Population analysis using the SCF Density.

 **********************************************************************

 Orbital symmetries:
       Occupied  (A) (A) (A) (A) (A) (A) (A) (A) (A) (A) (A) (A)
                 (A) (A) (A) (A) (A) (A) (A) (A) (A) (A) (A) (A)
                 (A) (A) (A) (A) (A) (A) (A) (A) (A) (A) (A) (A)
                 (A) (A) (A) (A) (A) (A) (A) (A) (A) (A) (A) (A)
                 (A) (A) (A) (A) (A) (A) (A) (A) (A) (A) (A) (A)
                 (A) (A) (A) (A) (A) (A) (A) (A) (A) (A) (A) (A)
                 (A) (A) (A) (A) (A) (A) (A) (A) (A) (A) (A) (A)
                 (A) (A) (A) (A) (A) (A) (A) (A) (A) (A) (A) (A)
                 (A) (A) (A) (A) (A) (A) (A) (A) (A) (A) (A) (A)
                 (A) (A) (A) (A) (A) (A) (A) (A) (A) (A) (A) (A)
                 (A) (A) (A) (A) (A) (A) (A) (A) (A) (A) (A) (A)
                 (A) (A) (A) (A) (A) (A) (A) (A) (A) (A) (A) (A)
                 (A) (A) (A) (A) (A) (A) (A) (A) (A) (A) (A) (A)
                 (A) (A) (A) (A) (A) (A) (A) (A) (A) (A) (A) (A)
                 (A) (A) (A) (A) (A) (A) (A) (A) (A) (A) (A) (A)
                 (A) (A) (A) (A) (A)
       Virtual   (A) (A) (A) (A) (A) (A) (A) (A) (A) (A) (A) (A)
                 (A) (A) (A) (A) (A) (A) (A) (A) (A) (A) (A) (A)
                 (A) (A) (A) (A) (A) (A) (A) (A) (A) (A) (A) (A)
                 (A) (A) (A) (A) (A) (A) (A) (A) (A) (A) (A) (A)
                 (A) (A) (A) (A) (A) (A) (A) (A) (A) (A) (A) (A)
                 (A) (A) (A) (A) (A) (A) (A) (A) (A) (A) (A) (A)
                 (A) (A) (A) (A) (A) (A) (A) (A) (A) (A) (A) (A)
                 (A) (A) (A) (A) (A) (A) (A) (A) (A) (A) (A) (A)
                 (A) (A) (A) (A) (A) (A) (A) (A) (A) (A) (A) (A)
                 (A) (A) (A) (A) (A) (A) (A) (A) (A) (A) (A) (A)
                 (A) (A) (A) (A) (A) (A) (A) (A) (A) (A) (A) (A)
                 (A) (A) (A) (A) (A) (A) (A) (A) (A) (A) (A) (A)
                 (A) (A) (A) (A) (A) (A) (A) (A) (A) (A) (A) (A)
                 (A) (A) (A) (A) (A) (A) (A) (A) (A) (A) (A) (A)
                 (A) (A) (A) (A) (A) (A) (A) (A) (A) (A) (A) (A)
                 (A) (A) (A) (A) (A) (A) (A) (A) (A) (A) (A) (A)
                 (A) (A) (A) (A) (A) (A) (A) (A) (A) (A) (A) (A)
                 (A) (A) (A) (A) (A) (A) (A) (A) (A) (A) (A) (A)
                 (A) (A) (A) (A) (A) (A) (A) (A) (A) (A) (A) (A)
                 (A) (A) (A) (A) (A) (A) (A) (A) (A) (A) (A) (A)
                 (A) (A) (A) (A) (A) (A) (A) (A) (A) (A) (A) (A)
                 (A) (A) (A) (A) (A) (A) (A) (A) (A) (A) (A) (A)
                 (A) (A) (A) (A) (A) (A) (A) (A) (A) (A) (A) (A)
                 (A) (A) (A) (A) (A) (A) (A) (A) (A) (A) (A) (A)
                 (A) (A) (A) (A) (A) (A) (A) (A) (A) (A) (A) (A)
                 (A) (A) (A) (A) (A) (A) (A) (A) (A) (A) (A) (A)
                 (A) (A) (A) (A) (A) (A) (A) (A) (A) (A) (A) (A)
                 (A) (A) (A) (A) (A) (A) (A) (A) (A) (A) (A) (A)
                 (A) (A) (A) (A) (A) (A) (A) (A) (A) (A) (A) (A)
                 (A) (A) (A) (A) (A) (A) (A) (A) (A) (A) (A) (A)
                 (A) (A) (A) (A) (A) (A) (A) (A) (A) (A) (A) (A)
                 (A) (A) (A) (A) (A) (A) (A) (A) (A) (A) (A) (A)
                 (A) (A) (A) (A) (A) (A) (A) (A) (A) (A) (A) (A)
                 (A) (A) (A) (A) (A) (A) (A) (A) (A) (A) (A) (A)
                 (A) (A) (A) (A) (A) (A) (A) (A) (A) (A) (A) (A)
                 (A) (A) (A) (A) (A) (A) (A) (A) (A) (A) (A) (A)
                 (A) (A) (A) (A) (A) (A) (A) (A) (A) (A) (A) (A)
                 (A) (A) (A) (A) (A) (A) (A) (A) (A) (A) (A) (A)
                 (A) (A) (A) (A) (A) (A) (A) (A) (A) (A) (A) (A)
                 (A) (A) (A) (A) (A) (A) (A) (A) (A) (A) (A) (A)
                 (A) (A) (A) (A) (A) (A) (A) (A) (A) (A) (A) (A)
                 (A) (A) (A) (A) (A) (A) (A) (A) (A) (A) (A) (A)
                 (A) (A) (A) (A) (A) (A) (A) (A) (A) (A) (A) (A)
                 (A) (A) (A) (A) (A) (A) (A) (A) (A) (A) (A) (A)
                 (A) (A) (A) (A) (A) (A) (A) (A) (A) (A) (A) (A)
                 (A) (A) (A) (A) (A) (A) (A) (A) (A) (A) (A) (A)
                 (A) (A) (A) (A) (A) (A) (A) (A) (A) (A) (A) (A)
                 (A) (A) (A) (A) (A) (A) (A) (A) (A) (A) (A) (A)
                 (A) (A) (A) (A) (A) (A) (A) (A) (A) (A) (A) (A)
                 (A) (A) (A) (A) (A) (A) (A) (A) (A) (A) (A) (A)
                 (A) (A) (A) (A) (A) (A) (A) (A) (A)
 The electronic state is 1-A.
 Alpha  occ. eigenvalues --  -19.21502 -19.21164 -19.20463 -19.20355 -19.20351
 Alpha  occ. eigenvalues --  -19.19429 -19.15464 -14.46302 -14.44171 -14.39801
 Alpha  occ. eigenvalues --  -10.32761 -10.32029 -10.31013 -10.30547 -10.30328
 Alpha  occ. eigenvalues --  -10.30120 -10.29873 -10.29494 -10.29466 -10.29345
 Alpha  occ. eigenvalues --  -10.29219 -10.28865 -10.28804 -10.28791 -10.28300
 Alpha  occ. eigenvalues --  -10.28236 -10.27602 -10.25549 -10.24498 -10.23622
 Alpha  occ. eigenvalues --  -10.23597 -10.23554 -10.22908 -10.22891 -10.22806
 Alpha  occ. eigenvalues --  -10.22634 -10.22279 -10.22229 -10.22046 -10.22012
 Alpha  occ. eigenvalues --  -10.21787 -10.21480 -10.19386 -10.19253  -6.81877
 Alpha  occ. eigenvalues --   -6.81360  -6.79168  -3.64334  -2.07212  -2.06039
 Alpha  occ. eigenvalues --   -2.05133  -1.07245  -1.06489  -1.05841  -1.01495
 Alpha  occ. eigenvalues --   -1.00374  -1.00311  -0.99540  -0.98940  -0.97669
 Alpha  occ. eigenvalues --   -0.91579  -0.84804  -0.83637  -0.83053  -0.81329
 Alpha  occ. eigenvalues --   -0.80486  -0.80102  -0.77581  -0.76760  -0.75716
 Alpha  occ. eigenvalues --   -0.74928  -0.74509  -0.71252  -0.70347  -0.70265
 Alpha  occ. eigenvalues --   -0.70105  -0.69201  -0.68409  -0.68213  -0.67638
 Alpha  occ. eigenvalues --   -0.67421  -0.67227  -0.64721  -0.63937  -0.63789
 Alpha  occ. eigenvalues --   -0.62604  -0.61634  -0.61202  -0.58005  -0.57093
 Alpha  occ. eigenvalues --   -0.55642  -0.55289  -0.54563  -0.54293  -0.53675
 Alpha  occ. eigenvalues --   -0.53608  -0.53461  -0.53150  -0.51302  -0.51093
 Alpha  occ. eigenvalues --   -0.49963  -0.48508  -0.47959  -0.47595  -0.47538
 Alpha  occ. eigenvalues --   -0.47395  -0.46706  -0.46649  -0.46406  -0.46288
 Alpha  occ. eigenvalues --   -0.46069  -0.45825  -0.45720  -0.45313  -0.45085
 Alpha  occ. eigenvalues --   -0.44709  -0.44344  -0.44257  -0.43864  -0.43608
 Alpha  occ. eigenvalues --   -0.43045  -0.42846  -0.42208  -0.41015  -0.40871
 Alpha  occ. eigenvalues --   -0.40760  -0.40551  -0.40333  -0.40178  -0.40010
 Alpha  occ. eigenvalues --   -0.39940  -0.39827  -0.39632  -0.39519  -0.39348
 Alpha  occ. eigenvalues --   -0.39217  -0.38959  -0.38641  -0.38520  -0.38394
 Alpha  occ. eigenvalues --   -0.38186  -0.38090  -0.37795  -0.37575  -0.37331
 Alpha  occ. eigenvalues --   -0.37175  -0.36985  -0.36490  -0.36242  -0.36115
 Alpha  occ. eigenvalues --   -0.36063  -0.35859  -0.35502  -0.35277  -0.35115
 Alpha  occ. eigenvalues --   -0.34828  -0.34453  -0.34244  -0.34022  -0.33530
 Alpha  occ. eigenvalues --   -0.33146  -0.32901  -0.32864  -0.32338  -0.32110
 Alpha  occ. eigenvalues --   -0.31863  -0.31802  -0.31355  -0.31028  -0.30641
 Alpha  occ. eigenvalues --   -0.30293  -0.30093  -0.29578  -0.28968  -0.27491
 Alpha  occ. eigenvalues --   -0.27168  -0.26854  -0.26189  -0.25837  -0.25230
 Alpha  occ. eigenvalues --   -0.23947  -0.23300  -0.22216  -0.22044  -0.19711
 Alpha virt. eigenvalues --   -0.07312  -0.04156  -0.03040   0.01499   0.02798
 Alpha virt. eigenvalues --    0.04403   0.05200   0.05767   0.06302   0.07217
 Alpha virt. eigenvalues --    0.07443   0.08014   0.09345   0.09609   0.09994
 Alpha virt. eigenvalues --    0.10408   0.11137   0.11232   0.11449   0.11814
 Alpha virt. eigenvalues --    0.11902   0.12524   0.12848   0.12998   0.13313
 Alpha virt. eigenvalues --    0.13681   0.14053   0.14613   0.14916   0.15054
 Alpha virt. eigenvalues --    0.15122   0.15348   0.15592   0.15728   0.15875
 Alpha virt. eigenvalues --    0.16113   0.16257   0.16516   0.16581   0.16781
 Alpha virt. eigenvalues --    0.16955   0.17074   0.17371   0.17510   0.17623
 Alpha virt. eigenvalues --    0.18216   0.18263   0.18453   0.18730   0.18848
 Alpha virt. eigenvalues --    0.18963   0.19122   0.19382   0.19444   0.19614
 Alpha virt. eigenvalues --    0.19936   0.20135   0.20202   0.20471   0.20562
 Alpha virt. eigenvalues --    0.20963   0.21021   0.21342   0.21380   0.21612
 Alpha virt. eigenvalues --    0.21973   0.22078   0.22284   0.22441   0.22677
 Alpha virt. eigenvalues --    0.22800   0.23391   0.23753   0.23786   0.24230
 Alpha virt. eigenvalues --    0.24499   0.24635   0.24757   0.25125   0.25442
 Alpha virt. eigenvalues --    0.25914   0.26022   0.26086   0.26560   0.26683
 Alpha virt. eigenvalues --    0.26900   0.27466   0.27698   0.27805   0.27919
 Alpha virt. eigenvalues --    0.28149   0.28370   0.28745   0.29410   0.29516
 Alpha virt. eigenvalues --    0.29802   0.30136   0.30659   0.30853   0.31267
 Alpha virt. eigenvalues --    0.32240   0.32694   0.33646   0.33953   0.34454
 Alpha virt. eigenvalues --    0.35289   0.35865   0.36119   0.36999   0.37459
 Alpha virt. eigenvalues --    0.38271   0.39725   0.40165   0.40945   0.41763
 Alpha virt. eigenvalues --    0.43655   0.44028   0.45084   0.45890   0.47157
 Alpha virt. eigenvalues --    0.47932   0.48223   0.49133   0.49167   0.49935
 Alpha virt. eigenvalues --    0.50409   0.50640   0.51126   0.51477   0.52043
 Alpha virt. eigenvalues --    0.52276   0.52506   0.53190   0.53416   0.53490
 Alpha virt. eigenvalues --    0.54153   0.54394   0.54865   0.55265   0.55731
 Alpha virt. eigenvalues --    0.56132   0.56204   0.56462   0.56773   0.57079
 Alpha virt. eigenvalues --    0.57429   0.57764   0.58022   0.58172   0.58233
 Alpha virt. eigenvalues --    0.58568   0.58899   0.58978   0.59358   0.59418
 Alpha virt. eigenvalues --    0.59990   0.60334   0.60496   0.60759   0.61081
 Alpha virt. eigenvalues --    0.61505   0.61810   0.61940   0.62141   0.62642
 Alpha virt. eigenvalues --    0.62842   0.63193   0.63605   0.63905   0.64715
 Alpha virt. eigenvalues --    0.65214   0.65311   0.65419   0.65505   0.66342
 Alpha virt. eigenvalues --    0.66794   0.66977   0.67167   0.67620   0.68190
 Alpha virt. eigenvalues --    0.68741   0.68875   0.69024   0.69136   0.70001
 Alpha virt. eigenvalues --    0.70323   0.70730   0.71174   0.71559   0.71934
 Alpha virt. eigenvalues --    0.72264   0.72320   0.72691   0.73106   0.73300
 Alpha virt. eigenvalues --    0.73860   0.74076   0.74500   0.74696   0.75212
 Alpha virt. eigenvalues --    0.75257   0.76013   0.76516   0.77517   0.77741
 Alpha virt. eigenvalues --    0.78117   0.78181   0.78537   0.78906   0.79498
 Alpha virt. eigenvalues --    0.79807   0.80070   0.80498   0.80708   0.81120
 Alpha virt. eigenvalues --    0.81386   0.81548   0.82009   0.82398   0.82482
 Alpha virt. eigenvalues --    0.83355   0.83477   0.83833   0.84025   0.84410
 Alpha virt. eigenvalues --    0.84588   0.84822   0.85023   0.85246   0.85644
 Alpha virt. eigenvalues --    0.85842   0.86011   0.86199   0.86529   0.86886
 Alpha virt. eigenvalues --    0.86895   0.87271   0.87472   0.87760   0.88186
 Alpha virt. eigenvalues --    0.88509   0.88743   0.88770   0.88963   0.89744
 Alpha virt. eigenvalues --    0.89829   0.90067   0.90240   0.90554   0.90953
 Alpha virt. eigenvalues --    0.91176   0.91254   0.91349   0.91701   0.91857
 Alpha virt. eigenvalues --    0.92217   0.92601   0.92764   0.92966   0.93485
 Alpha virt. eigenvalues --    0.93837   0.94454   0.94653   0.94842   0.94932
 Alpha virt. eigenvalues --    0.95258   0.95440   0.95699   0.96249   0.96604
 Alpha virt. eigenvalues --    0.96803   0.96995   0.97168   0.97719   0.97791
 Alpha virt. eigenvalues --    0.98372   0.98827   0.99113   0.99507   1.00123
 Alpha virt. eigenvalues --    1.00363   1.00679   1.01356   1.01577   1.02195
 Alpha virt. eigenvalues --    1.02514   1.02724   1.03212   1.03852   1.04531
 Alpha virt. eigenvalues --    1.04905   1.05647   1.06406   1.06635   1.07667
 Alpha virt. eigenvalues --    1.08256   1.08642   1.09348   1.09681   1.10284
 Alpha virt. eigenvalues --    1.11201   1.11880   1.12117   1.12426   1.13813
 Alpha virt. eigenvalues --    1.14806   1.15303   1.15749   1.16345   1.16929
 Alpha virt. eigenvalues --    1.17370   1.17962   1.18474   1.18960   1.19426
 Alpha virt. eigenvalues --    1.20191   1.20837   1.21249   1.21726   1.22064
 Alpha virt. eigenvalues --    1.22694   1.23107   1.24274   1.24615   1.25323
 Alpha virt. eigenvalues --    1.25716   1.26846   1.27275   1.28136   1.30206
 Alpha virt. eigenvalues --    1.30259   1.30984   1.31312   1.32415   1.32549
 Alpha virt. eigenvalues --    1.32829   1.33345   1.34933   1.35281   1.35550
 Alpha virt. eigenvalues --    1.36441   1.37471   1.38696   1.39077   1.39867
 Alpha virt. eigenvalues --    1.40349   1.40713   1.41074   1.41823   1.42155
 Alpha virt. eigenvalues --    1.42464   1.43578   1.44184   1.44587   1.44943
 Alpha virt. eigenvalues --    1.45300   1.45900   1.46171   1.46376   1.46622
 Alpha virt. eigenvalues --    1.46990   1.47612   1.48312   1.48688   1.49411
 Alpha virt. eigenvalues --    1.49770   1.52026   1.52469   1.53201   1.53870
 Alpha virt. eigenvalues --    1.55197   1.56131   1.58004   1.58236   1.59108
 Alpha virt. eigenvalues --    1.59979   1.60799   1.61913   1.63208   1.63677
 Alpha virt. eigenvalues --    1.64403   1.64784   1.65125   1.65838   1.66925
 Alpha virt. eigenvalues --    1.67243   1.67538   1.68695   1.68883   1.69292
 Alpha virt. eigenvalues --    1.69930   1.70720   1.71181   1.73077   1.73468
 Alpha virt. eigenvalues --    1.74655   1.75111   1.75652   1.76576   1.77261
 Alpha virt. eigenvalues --    1.77595   1.78044   1.78548   1.79040   1.79209
 Alpha virt. eigenvalues --    1.79767   1.80109   1.81197   1.81467   1.82187
 Alpha virt. eigenvalues --    1.82668   1.83050   1.83232   1.83885   1.84034
 Alpha virt. eigenvalues --    1.84467   1.85749   1.86059   1.86255   1.86627
 Alpha virt. eigenvalues --    1.87401   1.87967   1.88386   1.89128   1.89292
 Alpha virt. eigenvalues --    1.90209   1.90416   1.90702   1.91213   1.91413
 Alpha virt. eigenvalues --    1.91690   1.91831   1.92274   1.92405   1.92640
 Alpha virt. eigenvalues --    1.93405   1.93651   1.93776   1.94111   1.94346
 Alpha virt. eigenvalues --    1.94859   1.95635   1.96155   1.96526   1.96843
 Alpha virt. eigenvalues --    1.97413   1.97666   1.98123   1.99095   1.99918
 Alpha virt. eigenvalues --    2.01160   2.01785   2.02178   2.02394   2.02924
 Alpha virt. eigenvalues --    2.03342   2.03848   2.04359   2.04670   2.05264
 Alpha virt. eigenvalues --    2.06062   2.06599   2.07019   2.07465   2.07740
 Alpha virt. eigenvalues --    2.07786   2.08003   2.08902   2.09083   2.09450
 Alpha virt. eigenvalues --    2.10311   2.10498   2.10861   2.11205   2.11840
 Alpha virt. eigenvalues --    2.12177   2.12526   2.12804   2.13468   2.14356
 Alpha virt. eigenvalues --    2.14666   2.14863   2.14963   2.15591   2.16358
 Alpha virt. eigenvalues --    2.16512   2.16895   2.16955   2.17618   2.17887
 Alpha virt. eigenvalues --    2.18269   2.18550   2.18871   2.19085   2.19487
 Alpha virt. eigenvalues --    2.20075   2.20444   2.21221   2.21632   2.21743
 Alpha virt. eigenvalues --    2.22179   2.22198   2.22853   2.23276   2.23874
 Alpha virt. eigenvalues --    2.23992   2.24491   2.24991   2.25659   2.25997
 Alpha virt. eigenvalues --    2.26130   2.26478   2.27326   2.27555   2.28609
 Alpha virt. eigenvalues --    2.28734   2.30021   2.30610   2.31331   2.31761
 Alpha virt. eigenvalues --    2.32121   2.32340   2.32905   2.33600   2.33806
 Alpha virt. eigenvalues --    2.34627   2.35801   2.36524   2.37155   2.37620
 Alpha virt. eigenvalues --    2.38794   2.38990   2.39405   2.39833   2.40381
 Alpha virt. eigenvalues --    2.41576   2.42801   2.44415   2.46087   2.46539
 Alpha virt. eigenvalues --    2.46822   2.47837   2.48162   2.48506   2.48826
 Alpha virt. eigenvalues --    2.48998   2.49372   2.51339   2.52632   2.53574
 Alpha virt. eigenvalues --    2.54699   2.56537   2.59150   2.59899   2.60390
 Alpha virt. eigenvalues --    2.60585   2.60947   2.61364   2.62179   2.63050
 Alpha virt. eigenvalues --    2.63513   2.64248   2.65336   2.66017   2.67526
 Alpha virt. eigenvalues --    2.67913   2.68346   2.69030   2.71362   2.71618
 Alpha virt. eigenvalues --    2.76538   2.76737   2.77496   2.77820   2.78160
 Alpha virt. eigenvalues --    2.78837   2.78866   2.79837   2.80304   2.80749
 Alpha virt. eigenvalues --    2.81438   2.81638   2.82714   2.83446   2.84109
 Alpha virt. eigenvalues --    2.87276   2.87429   2.87677   2.90187   2.92919
 Alpha virt. eigenvalues --    2.93738   2.95074   2.95854   2.96268   2.97134
 Alpha virt. eigenvalues --    2.98924   2.99082   3.02776   3.06560   3.07631
 Alpha virt. eigenvalues --    3.08533   3.11226   3.13122   3.13882   3.21877
 Alpha virt. eigenvalues --    3.24900   3.29904   3.43969  14.38716
          Condensed to atoms (all electrons):
 Mulliken charges:
               1
     1  C    0.300680
     2  C    0.056035
     3  C   -0.169904
     4  C   -0.138793
     5  C   -0.183757
     6  C    0.310579
     7  C    0.054876
     8  C   -0.172400
     9  C   -0.141342
    10  C   -0.176720
    11  H    0.226637
    12  H    0.181761
    13  H    0.169446
    14  H    0.233789
    15  H    0.184826
    16  H    0.172387
    17  N   -0.459913
    18  N   -0.532468
    19  Ir  -0.213751
    20  O   -0.510373
    21  O   -0.552929
    22  O   -0.521560
    23  B    0.545978
    24  B    0.494134
    25  B    0.492073
    26  O   -0.514376
    27  O   -0.499943
    28  C    0.287259
    29  C    0.290175
    30  C    0.301549
    31  C    0.287110
    32  C    0.288217
    33  C    0.290978
    34  O   -0.501110
    35  C   -0.508224
    36  H    0.172725
    37  H    0.169329
    38  H    0.151999
    39  C   -0.494587
    40  H    0.147001
    41  H    0.169859
    42  H    0.153049
    43  C   -0.494565
    44  H    0.173729
    45  H    0.168493
    46  H    0.146864
    47  C   -0.503308
    48  H    0.152449
    49  H    0.170533
    50  H    0.156589
    51  C   -0.505136
    52  H    0.158568
    53  H    0.153027
    54  H    0.168286
    55  C   -0.500522
    56  H    0.187700
    57  H    0.147011
    58  H    0.146136
    59  C   -0.501555
    60  H    0.147642
    61  H    0.172529
    62  H    0.170135
    63  C   -0.504010
    64  H    0.144693
    65  H    0.172068
    66  H    0.166840
    67  C   -0.510644
    68  H    0.174831
    69  H    0.160904
    70  H    0.152374
    71  C   -0.510681
    72  H    0.182203
    73  H    0.183491
    74  H    0.147066
    75  C   -0.515147
    76  H    0.164213
    77  H    0.176644
    78  H    0.151756
    79  C   -0.502863
    80  H    0.171781
    81  H    0.169378
    82  H    0.146363
    83  H    0.171223
    84  C    0.583125
    85  O   -0.522214
    86  N   -0.400418
    87  C   -0.446544
    88  C   -0.167764
    89  C   -0.481721
    90  C   -0.368168
    91  C   -0.365841
    92  H    0.154819
    93  H    0.152243
    94  H    0.217010
    95  H    0.137357
    96  H    0.162313
    97  H    0.175005
    98  H    0.170361
    99  H    0.149758
   100  H    0.151466
   101  H    0.157626
   102  H    0.206919
   103  H    0.118222
   104  H    0.185162
   105  H    0.183892
 Sum of Mulliken charges =  -0.00000
 Mulliken charges with hydrogens summed into heavy atoms:
               1
     1  C    0.300680
     2  C    0.282673
     3  C    0.013988
     4  C    0.042967
     5  C   -0.014311
     6  C    0.310579
     7  C    0.288665
     8  C    0.012762
     9  C    0.043484
    10  C   -0.004333
    17  N   -0.459913
    18  N   -0.532468
    19  Ir  -0.042528
    20  O   -0.510373
    21  O   -0.552929
    22  O   -0.521560
    23  B    0.545978
    24  B    0.494134
    25  B    0.492073
    26  O   -0.514376
    27  O   -0.499943
    28  C    0.287259
    29  C    0.290175
    30  C    0.301549
    31  C    0.287110
    32  C    0.288217
    33  C    0.290978
    34  O   -0.501110
    35  C   -0.014171
    39  C   -0.024678
    43  C   -0.005479
    47  C   -0.023737
    51  C   -0.025255
    55  C   -0.019675
    59  C   -0.011249
    63  C   -0.020409
    67  C   -0.022535
    71  C    0.002079
    75  C   -0.022534
    79  C   -0.015340
    84  C    0.583125
    85  O   -0.522214
    86  N   -0.400418
    87  C   -0.146874
    88  C   -0.049542
    89  C    0.013403
    90  C    0.155904
    91  C    0.150171
 APT charges:
               1
     1  C    0.162366
     2  C    0.052931
     3  C   -0.037407
     4  C    0.101559
     5  C   -0.166043
     6  C    0.213598
     7  C    0.021256
     8  C   -0.077117
     9  C    0.113103
    10  C   -0.180724
    11  H    0.101158
    12  H    0.028285
    13  H    0.039400
    14  H    0.147996
    15  H    0.033469
    16  H    0.041481
    17  N   -0.196447
    18  N   -0.084042
    19  Ir  -0.787568
    20  O   -0.909728
    21  O   -1.018419
    22  O   -1.000719
    23  B    1.268058
    24  B    1.164983
    25  B    1.361076
    26  O   -1.014567
    27  O   -0.906102
    28  C    0.465503
    29  C    0.438928
    30  C    0.526280
    31  C    0.509454
    32  C    0.494492
    33  C    0.485762
    34  O   -0.941011
    35  C    0.003316
    36  H    0.000238
    37  H    0.001737
    38  H   -0.017443
    39  C   -0.027054
    40  H   -0.004711
    41  H    0.002598
    42  H   -0.016159
    43  C   -0.032666
    44  H    0.026868
    45  H    0.003353
    46  H   -0.025252
    47  C   -0.006074
    48  H   -0.013850
    49  H    0.003593
    50  H   -0.000944
    51  C   -0.009065
    52  H   -0.002436
    53  H   -0.016949
    54  H   -0.002568
    55  C   -0.040241
    56  H    0.027150
    57  H   -0.026795
    58  H   -0.003429
    59  C   -0.024622
    60  H   -0.027819
    61  H    0.004666
    62  H    0.000352
    63  C   -0.004292
    64  H   -0.020475
    65  H    0.002885
    66  H   -0.003001
    67  C   -0.010023
    68  H    0.005318
    69  H    0.001468
    70  H   -0.016991
    71  C   -0.041589
    72  H    0.011008
    73  H    0.008196
    74  H   -0.026541
    75  C   -0.014410
    76  H   -0.003680
    77  H    0.006630
    78  H   -0.014518
    79  C   -0.040241
    80  H    0.018211
    81  H   -0.000627
    82  H   -0.023239
    83  H    0.004725
    84  C    1.020480
    85  O   -0.797914
    86  N   -0.772331
    87  C    0.117126
    88  C   -0.072933
    89  C    0.039039
    90  C    0.333165
    91  C    0.278108
    92  H   -0.053074
    93  H   -0.059922
    94  H    0.076077
    95  H   -0.074590
    96  H   -0.076592
    97  H    0.011146
    98  H   -0.005233
    99  H   -0.027757
   100  H   -0.050182
   101  H   -0.049870
   102  H    0.049388
   103  H   -0.031761
   104  H    0.045888
   105  H    0.035892
 Sum of APT charges =  -0.00000
 APT charges with hydrogens summed into heavy atoms:
               1
     1  C    0.162366
     2  C    0.154090
     3  C   -0.001515
     4  C    0.129844
     5  C   -0.126643
     6  C    0.213598
     7  C    0.169252
     8  C   -0.031229
     9  C    0.146573
    10  C   -0.139243
    17  N   -0.196447
    18  N   -0.084042
    19  Ir  -0.782843
    20  O   -0.909728
    21  O   -1.018419
    22  O   -1.000719
    23  B    1.268058
    24  B    1.164983
    25  B    1.361076
    26  O   -1.014567
    27  O   -0.906102
    28  C    0.465503
    29  C    0.438928
    30  C    0.526280
    31  C    0.509454
    32  C    0.494492
    33  C    0.485762
    34  O   -0.941011
    35  C   -0.012154
    39  C   -0.045326
    43  C   -0.027697
    47  C   -0.017276
    51  C   -0.031018
    55  C   -0.043314
    59  C   -0.047423
    63  C   -0.024883
    67  C   -0.020228
    71  C   -0.048925
    75  C   -0.025978
    79  C   -0.045896
    84  C    1.020480
    85  O   -0.797914
    86  N   -0.772331
    87  C   -0.034056
    88  C   -0.104694
    89  C    0.017196
    90  C    0.296246
    91  C    0.227443
 Electronic spatial extent (au):  <R**2>=          24621.1537
 Charge=             -0.0000 electrons
 Dipole moment (field-independent basis, Debye):
    X=             -4.2110    Y=              5.0689    Z=              6.3573  Tot=              9.1565
 Quadrupole moment (field-independent basis, Debye-Ang):
   XX=           -314.5804   YY=           -264.8384   ZZ=           -291.6541
   XY=              1.3695   XZ=             28.9420   YZ=              2.9682
 Traceless Quadrupole moment (field-independent basis, Debye-Ang):
   XX=            -24.2228   YY=             25.5192   ZZ=             -1.2965
   XY=              1.3695   XZ=             28.9420   YZ=              2.9682
 Octapole moment (field-independent basis, Debye-Ang**2):
  XXX=            -99.9765  YYY=            176.0036  ZZZ=             13.2677  XYY=             31.6669
  XXY=            -19.2117  XXZ=             93.9053  XZZ=            -69.6992  YZZ=             56.2973
  YYZ=            -22.2015  XYZ=             20.9628
 Hexadecapole moment (field-independent basis, Debye-Ang**3):
 XXXX=         -14499.9845 YYYY=          -9366.1720 ZZZZ=          -8028.5069 XXXY=             33.0264
 XXXZ=            504.2988 YYYX=              7.7636 YYYZ=           -159.1519 ZZZX=            288.6872
 ZZZY=             32.2733 XXYY=          -4152.0113 XXZZ=          -3914.2052 YYZZ=          -2869.5446
 XXYZ=             91.1462 YYXZ=            128.9586 ZZXY=             25.0591
 N-N= 7.724520626396D+03 E-N=-2.054422983809D+04  KE= 2.113837629053D+03
  Exact polarizability:     449.793       4.944     495.868      31.236      -4.094     472.478
 Approx polarizability:     596.490       6.870     718.333      62.624     -12.957     738.094
   1 Symmetry operations used in ECPInt.
 ECPInt:  NShTT=   48205 NPrTT=  290969 LenC2=   38230 LenP2D=  118811.
 LDataN:  DoStor=T MaxTD1= 8 Len=  415
 Calling FoFJK, ICntrl=    100127 FMM=F ISym2X=0 I1Cent= 0 IOpClX= 0 NMat=1 NMatS=1 NMatT=0.
 Defaulting to unpruned grid for atomic number  77.
 Defaulting to unpruned grid for atomic number  77.
 Defaulting to unpruned grid for atomic number  77.
 Defaulting to unpruned grid for atomic number  77.
 Defaulting to unpruned grid for atomic number  77.
 Defaulting to unpruned grid for atomic number  77.
 Defaulting to unpruned grid for atomic number  77.
 Defaulting to unpruned grid for atomic number  77.
 Defaulting to unpruned grid for atomic number  77.
 Defaulting to unpruned grid for atomic number  77.
 Defaulting to unpruned grid for atomic number  77.
 Defaulting to unpruned grid for atomic number  77.
 Defaulting to unpruned grid for atomic number  77.
 Defaulting to unpruned grid for atomic number  77.
 Defaulting to unpruned grid for atomic number  77.
 Defaulting to unpruned grid for atomic number  77.
 Full mass-weighted force constant matrix:
 Low frequencies ---   -5.0454   -3.9641   -0.0005   -0.0003    0.0004    6.3668
 Low frequencies ---   12.4594   20.4477   25.2558
 Diagonal vibrational polarizability:
      158.8324985      80.4945032      60.0218993
 Harmonic frequencies (cm**-1), IR intensities (KM/Mole), Raman scattering
 activities (A**4/AMU), depolarization ratios for plane and unpolarized
 incident light, reduced masses (AMU), force constants (mDyne/A),
 and normal coordinates:
                      1                      2                      3
                      A                      A                      A
 Frequencies --     11.9192                20.2485                25.2219
 Red. masses --      4.1706                 4.0928                 4.6596
 Frc consts  --      0.0003                 0.0010                 0.0017
 IR Inten    --      0.1840                 0.1805                 1.0292
  Atom AN      X      Y      Z        X      Y      Z        X      Y      Z
     1   6     0.01  -0.01  -0.01     0.04  -0.00  -0.04     0.08  -0.01  -0.02
     2   6    -0.03  -0.01   0.01     0.03  -0.01  -0.04     0.05  -0.00  -0.00
     3   6    -0.04  -0.01   0.01     0.09  -0.01  -0.06     0.17  -0.01  -0.05
     4   6    -0.02  -0.01   0.00     0.12  -0.01  -0.08     0.26  -0.02  -0.08
     5   6     0.01  -0.01  -0.01     0.10  -0.01  -0.07     0.22  -0.02  -0.06
     6   6     0.04  -0.02  -0.02     0.02   0.00  -0.03     0.02  -0.01   0.01
     7   6     0.02  -0.02  -0.02    -0.01   0.01  -0.01    -0.05  -0.01   0.03
     8   6     0.06  -0.03  -0.03    -0.01   0.01  -0.02    -0.08  -0.01   0.04
     9   6     0.09  -0.03  -0.04    -0.00   0.01  -0.03    -0.07  -0.01   0.04
    10   6     0.07  -0.02  -0.03     0.01   0.01  -0.03    -0.01  -0.01   0.02
    11   1    -0.05  -0.00   0.01     0.01  -0.01  -0.02    -0.02   0.01   0.02
    12   1    -0.02  -0.01   0.01     0.16  -0.02  -0.10     0.37  -0.03  -0.12
    13   1     0.02  -0.02  -0.01     0.13  -0.01  -0.08     0.30  -0.03  -0.09
    14   1     0.00  -0.02  -0.02    -0.01   0.01  -0.01    -0.06  -0.01   0.04
    15   1     0.12  -0.03  -0.05    -0.00   0.02  -0.03    -0.10  -0.01   0.05
    16   1     0.10  -0.02  -0.03     0.02   0.01  -0.04    -0.01  -0.01   0.01
    17   7    -0.01  -0.01  -0.00     0.01  -0.00  -0.03     0.01  -0.00   0.01
    18   7     0.01  -0.02  -0.02     0.01   0.00  -0.02    -0.00  -0.01   0.02
    19  77    -0.00  -0.01  -0.02    -0.01  -0.00  -0.01    -0.01  -0.00   0.02
    20   8     0.02   0.02  -0.01     0.00  -0.03   0.03    -0.02  -0.01   0.01
    21   8    -0.04  -0.03  -0.00     0.03   0.01  -0.03    -0.03   0.00   0.04
    22   8    -0.03  -0.02   0.01    -0.02   0.03  -0.00    -0.02   0.00   0.03
    23   5    -0.00  -0.02  -0.03    -0.02   0.00   0.01     0.01  -0.00   0.00
    24   5     0.00   0.00  -0.01     0.01  -0.02   0.01    -0.01  -0.01   0.02
    25   5    -0.01  -0.02   0.00    -0.02   0.02  -0.00    -0.01  -0.01   0.02
    26   8    -0.01  -0.02   0.02    -0.03   0.02  -0.00     0.00  -0.01   0.01
    27   8     0.00   0.01   0.00     0.02  -0.04  -0.01    -0.02  -0.01   0.02
    28   6     0.02   0.05   0.02     0.02  -0.07   0.00    -0.02  -0.01   0.01
    29   6     0.04   0.05   0.00     0.01  -0.06   0.03    -0.03  -0.01   0.01
    30   6    -0.03  -0.02   0.03    -0.02   0.04   0.00    -0.01  -0.01   0.02
    31   6    -0.03  -0.02   0.03    -0.04   0.03  -0.00     0.00  -0.01   0.00
    32   6    -0.04  -0.03  -0.03     0.05   0.02  -0.01    -0.03  -0.00   0.02
    33   6     0.03  -0.02  -0.06    -0.04   0.00   0.03     0.05   0.00  -0.02
    34   8     0.04  -0.01  -0.08    -0.07  -0.00   0.06     0.06  -0.00  -0.04
    35   6     0.04   0.07   0.02     0.00  -0.08   0.04    -0.03  -0.02   0.00
    36   1     0.05   0.07   0.01    -0.01  -0.08   0.06    -0.03  -0.02  -0.00
    37   1     0.02   0.07   0.04     0.01  -0.08   0.03    -0.02  -0.02  -0.00
    38   1     0.05   0.09   0.03     0.01  -0.11   0.04    -0.03  -0.02  -0.00
    39   6     0.06   0.05  -0.02    -0.00  -0.07   0.05    -0.04  -0.01   0.02
    40   1     0.06   0.04  -0.03    -0.00  -0.07   0.05    -0.04  -0.01   0.03
    41   1     0.07   0.05  -0.03    -0.01  -0.07   0.07    -0.04  -0.01   0.02
    42   1     0.08   0.07  -0.02    -0.00  -0.10   0.06    -0.05  -0.01   0.01
    43   6    -0.01   0.06   0.05     0.04  -0.07  -0.02    -0.02  -0.02   0.01
    44   1    -0.03   0.05   0.06     0.04  -0.06  -0.02    -0.01  -0.02   0.01
    45   1    -0.02   0.05   0.06     0.05  -0.07  -0.04    -0.02  -0.02   0.02
    46   1     0.00   0.08   0.07     0.04  -0.10  -0.02    -0.02  -0.01   0.00
    47   6     0.04   0.06   0.02     0.03  -0.10  -0.00    -0.03  -0.01   0.01
    48   1     0.06   0.08   0.03     0.03  -0.12   0.01    -0.03  -0.02   0.01
    49   1     0.03   0.06   0.03     0.04  -0.10  -0.02    -0.02  -0.01   0.01
    50   1     0.06   0.06  -0.01     0.03  -0.09   0.01    -0.03  -0.01   0.02
    51   6    -0.06  -0.02   0.03     0.08   0.03  -0.09    -0.05   0.01   0.08
    52   1    -0.11  -0.04   0.06     0.14   0.04  -0.12    -0.11  -0.00   0.11
    53   1    -0.05  -0.03   0.00     0.09   0.03  -0.08    -0.04   0.01   0.06
    54   1    -0.03   0.01   0.07     0.03   0.01  -0.14    -0.01   0.05   0.13
    55   6    -0.10  -0.07  -0.08     0.12   0.04   0.06    -0.09  -0.04  -0.04
    56   1    -0.09  -0.08  -0.13     0.10   0.05   0.12    -0.08  -0.06  -0.09
    57   1    -0.10  -0.07  -0.09     0.14   0.04   0.07    -0.08  -0.04  -0.05
    58   1    -0.16  -0.07  -0.06     0.18   0.04   0.03    -0.15  -0.03  -0.02
    59   6     0.08   0.02  -0.02    -0.10  -0.02  -0.03     0.10   0.03   0.04
    60   1     0.07   0.02  -0.00    -0.08  -0.02  -0.06     0.10   0.04   0.06
    61   1     0.13   0.02  -0.04    -0.16  -0.02  -0.00     0.16   0.03   0.01
    62   1     0.07   0.03   0.03    -0.10  -0.02  -0.08     0.10   0.04   0.08
    63   6     0.04  -0.03  -0.13    -0.03   0.01   0.10     0.06  -0.01  -0.08
    64   1     0.02  -0.04  -0.12    -0.00   0.01   0.07     0.04  -0.01  -0.07
    65   1     0.01  -0.06  -0.17     0.00   0.02   0.16     0.03  -0.04  -0.12
    66   1     0.09  -0.02  -0.15    -0.10   0.01   0.12     0.11  -0.00  -0.10
    67   6    -0.02  -0.01   0.05    -0.04   0.04  -0.00     0.01  -0.03  -0.00
    68   1    -0.02  -0.01   0.05    -0.05   0.04  -0.01     0.02  -0.03  -0.01
    69   1    -0.00  -0.01   0.06    -0.04   0.05  -0.00     0.01  -0.04   0.01
    70   1    -0.04  -0.01   0.07    -0.04   0.05  -0.01     0.01  -0.02  -0.00
    71   6    -0.05  -0.02   0.02    -0.04   0.03  -0.00     0.01   0.01  -0.01
    72   1    -0.05  -0.03   0.01    -0.05   0.03  -0.01     0.00   0.02  -0.00
    73   1    -0.05  -0.03   0.01    -0.04   0.03  -0.00     0.02   0.01  -0.01
    74   1    -0.06  -0.02   0.03    -0.05   0.03   0.00     0.01   0.01  -0.01
    75   6    -0.05  -0.02   0.03    -0.03   0.05   0.01    -0.01   0.01   0.02
    76   1    -0.06  -0.02   0.03    -0.02   0.05   0.01    -0.02   0.01   0.03
    77   1    -0.06  -0.03   0.02    -0.04   0.04  -0.00    -0.01   0.02   0.02
    78   1    -0.06  -0.02   0.05    -0.04   0.06   0.01    -0.01  -0.00   0.01
    79   6    -0.02  -0.01   0.04    -0.01   0.05   0.01    -0.02  -0.02   0.03
    80   1    -0.00  -0.01   0.04    -0.01   0.04   0.01    -0.02  -0.03   0.02
    81   1    -0.02  -0.01   0.04    -0.00   0.05   0.02    -0.03  -0.02   0.03
    82   1    -0.02  -0.01   0.06    -0.02   0.06   0.02    -0.02  -0.03   0.02
    83   1    -0.01  -0.00  -0.02    -0.02  -0.02  -0.00    -0.03   0.00   0.01
    84   6     0.01   0.03   0.07     0.00   0.00   0.05    -0.03   0.03  -0.05
    85   8     0.06   0.01   0.09     0.05  -0.03   0.06    -0.06   0.02  -0.07
    86   7    -0.05   0.07   0.10    -0.05   0.05   0.07    -0.01   0.07  -0.07
    87   6    -0.01   0.00  -0.03    -0.01  -0.01  -0.03    -0.03   0.01  -0.02
    88   6     0.02   0.01   0.02     0.00  -0.00   0.01    -0.02   0.02  -0.01
    89   6     0.07  -0.00   0.01     0.04  -0.01  -0.00    -0.05  -0.01   0.01
    90   6    -0.06   0.11   0.15    -0.06   0.08   0.11    -0.01   0.08  -0.11
    91   6    -0.11   0.10   0.08    -0.11   0.09   0.05     0.02   0.08  -0.06
    92   1    -0.07   0.14   0.20    -0.07   0.12   0.16     0.00   0.09  -0.12
    93   1    -0.11   0.12   0.12    -0.11   0.10   0.08    -0.01   0.08  -0.12
    94   1    -0.01   0.09   0.16    -0.02   0.05   0.12    -0.04   0.07  -0.12
    95   1    -0.03   0.05  -0.06    -0.02   0.03  -0.06    -0.02   0.03  -0.03
    96   1    -0.03  -0.03  -0.06    -0.03  -0.04  -0.05    -0.05  -0.00  -0.02
    97   1     0.12  -0.01  -0.00     0.09  -0.02  -0.01    -0.08  -0.03  -0.00
    98   1     0.07   0.01  -0.03     0.03   0.00  -0.04    -0.04  -0.03   0.04
    99   1     0.08  -0.01   0.05     0.04  -0.03   0.03    -0.04  -0.01   0.01
   100   1    -0.21   0.12   0.03    -0.19   0.11   0.00     0.05   0.08  -0.06
   101   1    -0.11   0.18   0.14    -0.10   0.16   0.12     0.03   0.08  -0.07
   102   1    -0.08   0.03   0.04    -0.08   0.03   0.03     0.02   0.09  -0.03
   103   1     0.00   0.02   0.02    -0.01   0.00   0.01     0.00   0.03   0.00
   104   1     0.07  -0.03  -0.04    -0.02   0.02  -0.01    -0.12  -0.01   0.06
   105   1    -0.06  -0.00   0.02     0.10  -0.02  -0.07     0.20  -0.01  -0.06
                      4                      5                      6
                      A                      A                      A
 Frequencies --     34.2889                36.4098                38.1833
 Red. masses --      4.4395                 4.2519                 3.8800
 Frc consts  --      0.0031                 0.0033                 0.0033
 IR Inten    --      0.4040                 0.3406                 0.2796
  Atom AN      X      Y      Z        X      Y      Z        X      Y      Z
     1   6     0.03  -0.02   0.04     0.01  -0.02   0.03    -0.04  -0.01   0.00
     2   6    -0.02   0.02   0.06     0.02  -0.00   0.01     0.03  -0.02  -0.02
     3   6    -0.03   0.02   0.08     0.05   0.00   0.02    -0.01  -0.02  -0.01
     4   6    -0.01   0.01   0.08     0.07  -0.01   0.02    -0.08  -0.01   0.01
     5   6     0.02  -0.01   0.06     0.04  -0.02   0.03    -0.09  -0.01   0.02
     6   6     0.06  -0.03   0.02    -0.02  -0.03   0.03    -0.04  -0.01   0.00
     7   6     0.03  -0.05   0.01    -0.04  -0.05   0.02     0.01   0.00  -0.00
     8   6     0.08  -0.07   0.00    -0.10  -0.06   0.05    -0.03   0.01   0.00
     9   6     0.13  -0.06   0.00    -0.12  -0.06   0.07    -0.07   0.00   0.01
    10   6     0.12  -0.05   0.01    -0.08  -0.04   0.06    -0.07  -0.00   0.01
    11   1    -0.04   0.03   0.05     0.02   0.01   0.01     0.08  -0.03  -0.04
    12   1    -0.02   0.01   0.10     0.09  -0.01   0.02    -0.12  -0.01   0.02
    13   1     0.04  -0.02   0.07     0.06  -0.03   0.03    -0.14  -0.00   0.03
    14   1    -0.01  -0.05   0.01    -0.02  -0.05   0.00     0.03   0.00  -0.01
    15   1     0.18  -0.07  -0.01    -0.16  -0.07   0.09    -0.10   0.01   0.02
    16   1     0.16  -0.05   0.01    -0.10  -0.04   0.08    -0.10  -0.00   0.02
    17   7     0.01  -0.00   0.04     0.01  -0.01   0.02     0.01  -0.02  -0.02
    18   7     0.02  -0.04   0.02    -0.01  -0.03   0.02     0.00  -0.00  -0.00
    19  77    -0.00  -0.02   0.01     0.01  -0.02  -0.01     0.02  -0.02  -0.01
    20   8    -0.00   0.02  -0.02    -0.02  -0.00  -0.06     0.04   0.00   0.01
    21   8     0.01  -0.01  -0.01     0.05  -0.02  -0.06    -0.01  -0.01   0.03
    22   8     0.02  -0.01  -0.02     0.01  -0.04  -0.01     0.06  -0.00  -0.04
    23   5    -0.02  -0.02   0.02     0.01  -0.02  -0.02     0.01  -0.02   0.01
    24   5    -0.02   0.00  -0.00    -0.00   0.01  -0.01     0.02  -0.01   0.00
    25   5     0.01  -0.01  -0.01     0.00  -0.02   0.00     0.01   0.01  -0.01
    26   8     0.00  -0.01  -0.02    -0.01  -0.00   0.03    -0.06   0.06   0.03
    27   8    -0.05  -0.00  -0.00     0.01   0.06   0.03     0.01  -0.02  -0.01
    28   6    -0.06   0.03  -0.02     0.01   0.08   0.02     0.00  -0.03  -0.02
    29   6    -0.01   0.04  -0.02    -0.02   0.05  -0.06     0.02  -0.02   0.00
    30   6     0.03  -0.02  -0.05    -0.01  -0.02   0.01     0.02   0.06  -0.02
    31   6     0.03  -0.02  -0.04    -0.03  -0.01   0.04    -0.07   0.07   0.04
    32   6     0.01  -0.00   0.02     0.05  -0.02  -0.05    -0.01  -0.01   0.03
    33   6    -0.04  -0.02   0.05    -0.01  -0.02  -0.02     0.02  -0.01   0.01
    34   8    -0.05  -0.02   0.06    -0.04  -0.02   0.01     0.03  -0.02  -0.00
    35   6    -0.00   0.09  -0.03    -0.03   0.02  -0.08     0.02  -0.01  -0.02
    36   1     0.03   0.09  -0.02    -0.05  -0.01  -0.14     0.03  -0.01  -0.01
    37   1    -0.02   0.10  -0.03    -0.01  -0.03  -0.05     0.03  -0.00  -0.04
    38   1    -0.01   0.09  -0.03    -0.03   0.06  -0.08    -0.00  -0.03  -0.03
    39   6     0.02   0.02  -0.02    -0.05   0.11  -0.11     0.00  -0.04   0.04
    40   1     0.02  -0.02  -0.02    -0.05   0.14  -0.09     0.00  -0.04   0.05
    41   1     0.05   0.02  -0.02    -0.07   0.08  -0.16     0.01  -0.03   0.05
    42   1     0.02   0.03  -0.02    -0.07   0.16  -0.12    -0.01  -0.06   0.03
    43   6    -0.08   0.06  -0.04     0.03   0.04   0.07    -0.00  -0.02  -0.05
    44   1    -0.07   0.08  -0.04     0.03  -0.02   0.06     0.02   0.00  -0.05
    45   1    -0.10   0.05  -0.05     0.05   0.05   0.13    -0.01  -0.02  -0.05
    46   1    -0.08   0.07  -0.05     0.02   0.05   0.06    -0.01  -0.02  -0.06
    47   6    -0.08   0.01  -0.02     0.01   0.17   0.03    -0.01  -0.06  -0.02
    48   1    -0.09   0.04  -0.03     0.00   0.18   0.01    -0.02  -0.07  -0.02
    49   1    -0.12   0.01  -0.01     0.03   0.18   0.08    -0.02  -0.06  -0.04
    50   1    -0.07  -0.01  -0.00    -0.00   0.20  -0.01    -0.01  -0.07   0.00
    51   6     0.02  -0.01  -0.01     0.07  -0.03  -0.11    -0.02  -0.00   0.06
    52   1     0.04  -0.00  -0.02     0.11  -0.03  -0.12    -0.06  -0.01   0.08
    53   1     0.02  -0.00  -0.01     0.06  -0.03  -0.10    -0.02  -0.01   0.05
    54   1    -0.00  -0.01  -0.03     0.03  -0.05  -0.14    -0.00   0.01   0.09
    55   6     0.04   0.03   0.05     0.10   0.01  -0.00    -0.04  -0.02  -0.00
    56   1     0.04   0.05   0.08     0.09   0.04   0.04    -0.04  -0.04  -0.03
    57   1     0.03   0.04   0.07     0.08   0.01  -0.00    -0.04  -0.02   0.00
    58   1     0.08   0.03   0.04     0.16  -0.01  -0.01    -0.08  -0.01   0.00
[...]
 00037,-0.00000164,-0.00000371,-0.00000055,-0.00000090,0.00000026,0.000
 00028,-0.00000108,0.00000010,-0.00000063,-0.00000030,0.00000157,0.0000
 0067,-0.00003543,-0.00010130,-0.00011919,0.00002957,0.00001147,0.00001
 685,-0.00001541,-0.00000483,0.00000041,-0.00002614,-0.00002098,-0.0000
 2144,0.00006991,0.00001484,0.00001483,-0.00002118,0.00000428,-0.000013
 33,-0.00000347,-0.00001026,-0.00000075,0.00001505,0.00001557,0.0000055
 7,-0.00000964,0.00003152,0.00002979,-0.00000206,0.00000159,-0.00000118
 ,-0.00000058,-0.00000918,-0.00000077,-0.00000002,-0.00000221,0.0000019
 0,-0.00000189,-0.00001105,-0.00001436,-0.00001624,-0.00000856,-0.00000
 266,0.00000074,-0.00000160,0.00000171,-0.00000116,0.00000518,-0.000001
 84,0.00000346,0.00000199,-0.00000095,-0.00000160,-0.00001323,0.0000150
 7,0.00001567,-0.00000175,-0.00000134,0.00000544,0.00000581,-0.00002308
 ,0.00000406,-0.00000053,0.00000084,-0.04315740,0.11242765,0.00045769,0
 .00006904,-0.00012981,0.00001445,0.00001354,0.00001828,0.00000551,-0.0
 0000265,-0.00001567,0.00002534,0.00002070,0.00000769,-0.00004187,0.000
 00762,-0.00005523,0.00027567,-0.00141491,0.00023664,-0.00580535,0.0138
 7728,-0.01435809,-0.08499211,0.10302659,-0.25708459,-0.00004381,-0.001
 43685,0.00232685,-0.00182277,-0.00014603,0.00237767,-0.00000078,-0.000
 00103,0.00000028,0.00000014,0.00000552,-0.00000546,-0.00002578,-0.0000
 0700,0.00002133,0.00127303,0.00014649,0.00015965,0.00136719,0.00027296
 ,-0.00005664,-0.00004275,-0.00020252,0.00008421,-0.00005335,-0.0000427
 6,-0.00006133,-0.00399590,-0.00326523,-0.00208529,-0.00000712,0.000539
 09,0.00036866,-0.00009064,-0.00003586,0.00008936,0.00017085,-0.0002383
 0,0.00023311,-0.00011811,-0.00000691,-0.00004618,-0.00015916,0.0003300
 4,-0.00016968,0.00027310,0.00020967,-0.00016746,0.00026964,0.00001401,
 -0.00006878,-0.00010362,-0.00007114,0.00000209,-0.00001410,-0.00007350
 ,0.00019887,-0.00000691,0.00000296,-0.00004846,0.00002133,0.00001386,-
 0.00006501,0.00004384,0.00002993,0.00001448,0.00002068,0.00001363,0.00
 003139,-0.00000116,0.00005341,-0.00008826,-0.00005325,0.00001851,-0.00
 004323,0.00006759,-0.00013848,0.00008686,-0.00000123,-0.00000383,0.000
 01133,0.00000275,-0.00000265,-0.00000055,0.00000214,0.00000138,-0.0000
 0172,-0.00000647,0.00000191,0.00000409,-0.00003415,-0.00000081,0.00001
 646,-0.00001532,0.00002981,-0.00002959,0.00001829,-0.00000930,0.000003
 28,-0.00001290,0.00000532,0.00000708,-0.00000541,0.00000342,0.00001779
 ,0.00000871,0.00000288,0.00000287,-0.00000027,-0.00000540,-0.00000156,
 -0.00000391,-0.00000226,-0.00000018,-0.00001198,-0.00001787,-0.0000113
 4,0.00002129,0.00000246,0.00000864,-0.00000582,-0.00001173,0.00000598,
 -0.00007402,0.00000299,-0.00001652,-0.00001802,-0.00002513,-0.00004124
 ,0.00001489,-0.00001082,0.00003862,0.00001549,0.00001141,0.00001622,-0
 .00000046,-0.00000192,-0.00000380,-0.00001651,-0.00004471,-0.00005730,
 0.00000693,0.00001358,0.00000277,0.00000007,0.00001264,0.00002112,-0.0
 0000033,-0.00000729,0.00003913,0.00001086,-0.00000528,0.00001473,0.000
 00410,-0.00001016,-0.00000218,0.00000128,0.00000559,0.00000726,-0.0000
 0352,0.00000415,-0.00000674,0.00000791,-0.00000552,0.00000796,0.000000
 19,-0.00001021,0.00000112,-0.00000454,0.00000057,-0.00000495,-0.000000
 82,0.00000472,0.00000643,-0.00000044,-0.00000176,-0.00000533,0.0000002
 1,-0.00000346,0.00000122,-0.00000121,0.00000211,-0.00000005,-0.0000039
 2,-0.00000151,-0.00000026,0.00000157,0.00000264,-0.00000977,-0.0000037
 3,0.00000236,0.00000631,-0.00000063,-0.00000219,0.00000250,-0.00000295
 ,-0.00000328,-0.00000305,-0.00000571,-0.00000201,-0.00000073,0.0000013
 8,0.00000095,0.00000024,0.00000148,0.00000083,0.00000167,-0.00000384,-
 0.00000173,-0.00000313,-0.00001045,-0.00000606,-0.00000406,0.00000303,
 0.00000092,-0.00000087,0.00000204,-0.00000066,0.00000054,-0.00000751,-
 0.00000006,0.00000071,-0.00007450,-0.00016325,-0.00017295,-0.00018393,
 -0.00004520,-0.00020158,0.00003705,-0.00000085,0.00011328,0.00007152,0
 .00002353,0.00020733,0.00001534,0.00004177,0.00000797,0.00002077,0.000
 02866,-0.00002758,0.00000329,-0.00002936,-0.00000187,0.00000336,0.0000
 0121,0.00003504,0.00002054,-0.00007638,-0.00012282,0.00000971,-0.00000
 403,-0.00000371,0.00000390,0.00001195,-0.00000775,-0.00001039,-0.00000
 090,0.00000022,-0.00002317,0.00000712,-0.00000171,0.00001054,-0.000010
 68,-0.00000868,-0.00000410,0.00000048,0.00000640,0.00000895,0.00001927
 ,0.00000601,0.00000887,-0.00000564,-0.00000574,0.00000527,0.00010276,-
 0.00001503,0.00004146,-0.00001872,0.00000508,-0.00002249,-0.00000668,-
 0.00004894,-0.00000120,-0.00001769,0.00000721,0.09330073,-0.11135925,0
 .26847883,-0.00025221,-0.00028641,0.00030829,0.00097954,-0.00052399,0.
 00019829,-0.07076406,0.02236360,-0.09437540,-0.00007721,0.00358785,-0.
 00760619,0.00606147,-0.00198657,-0.00300755,-0.00131209,0.00009222,0.0
 0053867,-0.00000323,-0.00000110,0.00007055,-0.00003854,-0.00004430,-0.
 00002550,-0.00003761,0.00006952,-0.00000475,0.00007813,-0.00004272,0.0
 0000975,-0.00261564,0.00048353,0.00121169,-0.00310889,0.00037667,0.001
 60932,0.00007168,0.00018532,-0.00040063,0.00000483,-0.00000246,-0.0000
 0460,-0.00000977,-0.00000099,0.00000137,0.00007416,0.00002291,-0.00000
 302,0.00733173,-0.00045099,-0.00225857,0.00005422,0.00004083,-0.000135
 64,-0.00016320,-0.00009234,0.00026798,0.00000246,0.00002891,-0.0000350
 5,-0.00002739,0.00004441,-0.00001574,-0.00012374,-0.00007719,-0.000031
 66,0.00005729,-0.00006442,-0.00003474,0.00002638,-0.00010871,0.0000295
 4,0.00001255,-0.00001102,-0.00002744,-0.00001724,0.00000644,-0.0000075
 8,-0.00001713,0.00001664,0.00000524,0.00000375,-0.00000476,0.00000564,
 0.00000653,-0.00000300,0.00001590,0.00007323,-0.00001502,0.00002209,-0
 .00001029,-0.00002445,0.00000293,-0.00000253,-0.00001274,0.00000327,0.
 00001204,-0.00001379,0.00000203,-0.00001714,0.00004770,-0.00000155,0.0
 0000219,-0.00000246,-0.00000225,-0.00000108,0.00000433,0.00000311,-0.0
 0000097,-0.00000302,0.00000145,0.00000034,0.00000093,-0.00000332,-0.00
 000176,-0.00000256,0.00000283,-0.00000089,-0.00000055,0.00000065,0.000
 00009,0.00000254,0.00000020,0.00000124,0.00000019,-0.00000146,-0.00000
 022,0.00000123,0.00000027,0.00000034,-0.00000192,-0.00000080,-0.000001
 02,0.00000220,-0.00000083,0.00000028,-0.00000091,0.00000043,-0.0000024
 2,0.00000170,0.00000069,0.00000050,-0.00000089,0.00000110,-0.00000032,
 0.00000231,-0.00000078,0.00000052,-0.00000093,-0.00000037,0.00000162,0
 .00000338,-0.00000194,0.00000021,-0.00000048,-0.00000033,-0.00000152,0
 .00000163,-0.00000075,-0.00000149,-0.00000026,0.00000139,-0.00000057,0
 .00000182,0.00000012,-0.00000114,-0.00000108,-0.00000104,0.00000011,0.
 00000202,-0.00000086,0.00000088,-0.00000071,0.00000124,-0.00000029,0.0
 0000413,-0.00000092,-0.00000238,0.00000092,0.00000064,0.00000185,0.000
 00101,0.00000083,-0.00000142,-0.00000166,-0.00000204,-0.00000167,0.000
 00238,0.00000039,-0.00000042,0.00000160,-0.00000119,-0.00000134,-0.000
 00080,0.00000115,0.00000142,-0.00000001,0.00000058,0.00000056,-0.00000
 066,-0.00000067,-0.00000259,0.00000278,-0.00000056,-0.00000211,-0.0000
 0136,0.00000453,-0.00000012,-0.00000244,-0.00000023,-0.00000009,0.0000
 0902,-0.00000321,0.00000011,-0.00000153,-0.00000015,-0.00000162,0.0000
 0265,-0.00000117,0.00000052,-0.00000183,0.00000051,0.00000898,-0.00003
 646,0.00001219,-0.00000422,0.00000845,-0.00001470,-0.00000378,0.000012
 36,0.00000069,-0.00000192,0.00000883,-0.00000431,-0.00000485,-0.000034
 28,0.00001154,0.00000049,0.00000639,-0.00000146,-0.00000793,0.00001108
 ,-0.00000193,-0.00000311,0.00000719,0.00000108,0.00000964,0.00000825,-
 0.00000099,0.00003527,0.00004550,-0.00006617,-0.00002816,-0.00004252,0
 .00006411,-0.00000679,-0.00000583,0.00003009,-0.00003488,0.00010218,-0
 .00006798,-0.00005974,-0.00003083,0.00000020,0.00000502,0.00001534,-0.
 00001748,0.00000525,0.00000218,0.00000032,0.00000690,0.00000153,-0.000
 01431,0.00000028,-0.00000218,0.00000045,-0.00000100,-0.00000069,-0.000
 00344,-0.00000216,0.00000266,0.00000039,-0.00000315,0.00000218,-0.0000
 0386,0.00003705,0.00000637,-0.00000593,-0.00000296,-0.00000357,0.00000
 685,-0.00000134,-0.00000480,-0.00000191,-0.00000071,-0.00000112,0.0000
 0477,0.00000213,0.00000393,0.00000416,0.00000017,0.00000005,0.00000334
 ,0.00000096,-0.00000192,-0.00000239,0.00000542,-0.00000551,0.00000573,
 0.00004098,0.00000320,-0.00001756,0.06377079,-0.00058622,-0.00201630,-
 0.00117280,0.01080169,0.00041010,0.02780954,0.02240605,-0.07614835,0.0
 6515149,-0.00759947,0.01032706,-0.02098731,-0.00191490,-0.00278802,-0.
 00270544,0.00017094,0.00014258,0.00009309,-0.00001139,0.00003762,-0.00
 003125,0.00000154,0.00002538,0.00000801,0.00002037,0.00003408,0.000054
 08,-0.00000305,-0.00007340,-0.00002568,0.00002961,0.00067374,-0.000566
 67,0.00057326,0.00086789,0.00051802,-0.00040935,0.00038971,-0.00108683
 ,0.00000110,-0.00000992,-0.00000820,0.00000226,-0.00000033,0.00000392,
 0.00000223,0.00003627,0.00003723,0.00025326,-0.00635637,0.00298342,-0.
 00000207,-0.00007747,-0.00000603,-0.00017965,0.00082063,0.00004992,-0.
 00005479,-0.00000180,0.00001919,0.00005581,-0.00011828,0.00007431,-0.0
 0016716,0.00007922,-0.00023523,-0.00003855,0.00005210,-0.00009039,0.00
 010900,-0.00000959,-0.00003398,0.00030878,0.00002646,0.00022515,-0.000
 09645,0.00000718,-0.00009920,-0.00004538,-0.00000082,0.00003545,0.0000
 2440,0.00000177,-0.00000539,0.00000643,-0.00000558,-0.00001713,0.00002
 610,-0.00000495,0.00004927,0.00002885,-0.00002307,0.00005120,0.0000107
 7,0.00003146,-0.00001172,-0.00003225,0.00002604,-0.00000872,0.00003431
 ,-0.00018706,0.00003087,0.00000316,0.00000517,0.00000510,-0.00000077,0
 .00000228,0.00000125,-0.00000248,-0.00000438,0.00000082,-0.00000320,0.
 00000018,-0.00000154,-0.00000127,-0.00000005,0.00000208,-0.00000157,-0
 .00000129,-0.00000222,-0.00000027,-0.00000036,-0.00000090,-0.00000041,
 0.00000058,0.00000124,-0.00000193,-0.00000172,0.00000446,0.00000046,0.
 00000098,0.00000088,0.00000088,0.00000066,-0.00000068,-0.00000271,-0.0
 0000102,0.00000013,-0.00000576,-0.00000223,0.00000118,-0.00000082,0.00
 000042,0.00000251,0.00000146,0.00000042,-0.00000017,-0.00000022,-0.000
 00088,-0.00000153,-0.00000517,-0.00000894,0.00000394,0.00000131,0.0000
 0127,0.00000119,0.00000432,-0.00000425,0.00000238,0.00000037,0.0000010
 8,-0.00000115,0.00000088,-0.00000930,0.00000046,0.00000138,0.00000194,
 -0.00000261,-0.00000197,-0.00000368,0.00000472,0.00000053,0.00000145,0
 .00000055,0.00000394,-0.00000866,0.00000745,0.00000542,-0.00000388,-0.
 00000246,-0.00000199,-0.00000110,-0.00000228,-0.00000090,0.00000124,0.
 00000237,0.00001131,-0.00000637,0.00000492,-0.00000285,-0.00000693,0.0
 0000161,0.00000030,0.00000174,0.00000151,-0.00000103,-0.00000261,-0.00
 000371,-0.00000738,0.00000551,-0.00000932,0.00000109,0.00000715,-0.000
 00139,0.00000282,-0.00000303,0.00000193,-0.00000590,-0.00000561,-0.000
 00117,-0.00000793,0.00000442,-0.00001013,0.00000857,-0.00000452,0.0000
 0797,0.00000141,0.00001021,-0.00000427,-0.00000481,-0.00000837,-0.0000
 0520,0.00001789,-0.00004275,0.00002041,-0.00004734,0.00002792,-0.00001
 249,0.00000389,-0.00002485,-0.00000435,0.00000835,0.00002599,-0.000018
 13,-0.00000428,-0.00002954,-0.00000636,0.00000839,0.00000815,-0.000009
 91,-0.00001504,0.00001618,0.00001001,-0.00000110,0.00000840,0.00000016
 ,-0.00000722,-0.00001330,-0.00000939,-0.00001817,-0.00001367,0.0000277
 3,0.00001245,0.00001314,-0.00003174,0.00000117,0.00000274,-0.00001129,
 0.00003059,-0.00003178,-0.00002109,0.00000882,0.00000856,0.00001186,-0
 .00000277,-0.00001119,0.00001098,-0.00000171,-0.00000065,-0.00000148,-
 0.00000445,-0.00000400,0.00000295,-0.00000019,0.00000044,0.00000010,0.
 00000044,0.00000010,0.00000045,0.00000112,0.00000026,0.00000018,-0.000
 01441,0.00000564,-0.00000357,0.00001465,0.00000406,0.00001494,0.000010
 62,0.00000885,-0.00000716,-0.00000061,-0.00000118,0.00001183,-0.000000
 27,0.00000118,-0.00000619,0.00000046,0.00000034,-0.00000137,0.00000011
 ,0.00000044,-0.00000125,-0.00000390,-0.00000167,0.00000077,-0.00001012
 ,0.00000189,-0.00000468,-0.00000148,0.00000741,0.00000518,-0.02370028,
 0.07390739,0.00035942,-0.00037418,0.00064186,-0.00196057,-0.00147579,-
 0.00373709,-0.09449748,0.06554009,-0.28989675,-0.00531511,0.00759176,-
 0.01252351,-0.00299443,-0.00311661,0.00036040,0.00052474,-0.00001537,-
 0.00016742,0.00000387,0.00000355,-0.00001439,0.00000907,0.00002835,-0.
 00000775,0.00002673,-0.00000987,0.00002812,-0.00004746,-0.00000901,-0.
 00007290,0.00109564,-0.00007026,-0.00023367,0.00155204,-0.00004864,0.0
 0022524,-0.00027077,0.00046151,-0.00057132,-0.00000317,-0.00000525,-0.
 00000306,0.00000139,-0.00000116,-0.00000841,-0.00001892,0.00002998,0.0
 0005270,-0.00231859,0.00160869,0.00201570,-0.00004488,0.00002844,-0.00
 001684,0.00014961,-0.00015509,-0.00010528,0.00008802,-0.00002423,-0.00
 003274,-0.00003823,0.00009918,-0.00004911,0.00022323,0.00001731,0.0001
 3232,0.00002517,-0.00012225,0.00007361,-0.00013394,0.00001766,0.000085
 45,-0.00023119,-0.00007139,-0.00013086,0.00010456,0.00003824,0.0000641
 7,0.00007059,0.00000603,-0.00005858,-0.00003615,0.00000283,0.00001393,
 -0.00002610,-0.00000340,0.00001657,-0.00010467,0.00000533,-0.00003019,
 -0.00002247,0.00001298,-0.00004952,-0.00000656,-0.00003881,0.00001491,
 0.00002448,-0.00002786,0.00000955,-0.00001753,0.00013903,-0.00001727,-
 0.00000087,0.00000602,-0.00000225,-0.00000048,-0.00000787,-0.00000347,
 0.00000364,0.00000662,0.00000056,0.00000415,-0.00000167,0.00000075,0.0
 0000193,0.00000472,-0.00000505,0.00000391,-0.00000476,0.00000585,-0.00
 000892,-0.00000015,0.00000169,0.00000261,0.00000095,-0.00000475,0.0000
 0398,0.00000021,-0.00000303,-0.00000280,0.00000066,0.00000122,-0.00000
 062,-0.00000104,0.00000139,0.00000540,0.00000189,-0.00000283,0.0000032
 1,-0.00000190,-0.00000361,0.00000301,-0.00000022,-0.00000417,-0.000001
 37,0.00000027,0.00000105,0.00000030,0.00000145,0.00000407,0.00000152,0
 .00000632,-0.00000357,-0.00000058,-0.00000207,0.,-0.00000235,0.0000048
 9,-0.00000166,0.00000063,-0.00000170,0.00000062,-0.00000064,0.00000629
 ,-0.00000346,-0.00000102,-0.00000228,0.00000157,0.00000151,0.00000529,
 -0.00000334,-0.00000003,-0.00000178,0.00000158,-0.00000416,0.00000536,
 -0.00000371,-0.00000398,0.00000435,0.00000007,0.00000129,-0.00000049,0
 .00000174,0.00000254,-0.00000078,-0.00000088,-0.00000578,0.00000517,-0
 .00000227,0.00000075,0.00000514,-0.00000201,-0.00000003,-0.00000170,-0
 .00000112,0.00000104,0.00000141,0.00000320,0.00000297,0.00000129,0.000
 00679,0.00000122,-0.00000393,-0.00000123,-0.00000042,0.00000155,-0.000
 00607,0.00000487,0.00000460,0.00000304,0.00000537,-0.00000685,0.000011
 77,-0.00000129,0.00000106,-0.00000616,0.00000014,-0.00000632,-0.000000
 22,0.00000323,0.00000537,0.00000530,0.00000053,0.00002783,-0.00001290,
 0.00000877,-0.00000784,0.00001876,0.00000220,-0.00000520,-0.00000195,0
 .00000225,-0.00000734,0.00000863,0.00000923,0.00004487,-0.00001615,-0.
 00000637,-0.00000656,0.00000248,0.00001212,-0.00001271,0.00000559,0.00
 000768,-0.00001047,0.00000009,0.00000794,0.00000992,0.00001471,0.00003
 549,0.00001720,-0.00001975,-0.00002292,-0.00001360,0.00002604,-0.00001
 712,-0.00000137,0.00000575,0.00003874,-0.00004477,0.00001245,-0.000000
 67,-0.00000432,-0.00000237,-0.00000152,0.00000697,-0.00000465,0.000011
 91,0.00000148,0.00000045,0.00000526,-0.00000381,-0.00000536,-0.0000022
 9,0.00000100,-0.00000230,-0.00000078,-0.00000124,-0.00000155,0.0000008
 3,0.00000054,0.00000192,0.00000243,-0.00000725,0.00001021,-0.00002552,
 -0.00000905,0.00000048,-0.00000144,-0.00000397,0.00000246,-0.00000041,
 -0.00000334,-0.00000530,-0.00000279,0.00000336,0.00000474,0.00000298,0
 .00000321,0.00000287,-0.00000327,0.00000239,0.00000037,0.00000075,-0.0
 0000215,0.00000044,0.00000514,0.00000242,-0.00000052,-0.00001768,0.000
 00591,0.00000154,0.10375432,-0.07007921,0.30395755\\0.00001404,-0.0000
 0088,0.00001287,0.00001028,0.00000130,-0.00000582,0.00000322,0.0000025
 9,-0.00000163,-0.00000087,-0.00000861,0.00000516,0.00000679,-0.0000005
 3,0.00000168,-0.00000177,0.00000773,0.00001174,0.00003397,-0.00001434,
 0.00000123,0.00000382,-0.00000132,0.00000041,-0.00000474,0.00000268,-0
 .00000407,0.00000984,-0.00000998,0.00000617,0.00000492,0.00001217,-0.0
 0000167,0.00000088,0.00000619,-0.00000094,-0.00000715,-0.00000211,0.00
 000169,-0.00000283,0.00000374,0.00000547,0.00000321,0.00000365,0.00000
 114,0.00000546,0.00000441,0.00000016,-0.00003143,0.00000974,-0.0000040
 5,-0.00003472,0.00000113,0.00000750,-0.00016103,-0.00004807,-0.0001502
 0,0.00001775,-0.00001471,-0.00001136,0.00002023,-0.00003259,0.00001849
 ,0.00002554,-0.00002673,-0.00001928,-0.00000893,-0.00002406,0.00000979
 ,0.00002035,0.00002841,0.00000936,0.00000329,0.00002263,0.00004078,0.0
 0001220,-0.00000499,-0.00000589,0.00003226,0.00002479,-0.00001527,0.00
 000342,-0.00000498,0.00000016,0.00000263,-0.00001384,-0.00000977,0.000
 03267,0.00001488,0.00000397,0.00000894,0.00002031,0.00003221,-0.000005
 20,0.00002671,-0.00001488,-0.00002329,0.00002331,-0.00001960,0.0000056
 0,-0.00002409,-0.00000179,-0.00000100,-0.00000307,0.00000659,-0.000000
 69,0.00000196,-0.00000043,0.00000435,-0.00000912,-0.00000798,0.0000015
 9,0.00000105,-0.00000104,-0.00000028,0.00000207,0.00000261,0.00000088,
 0.00000105,-0.00000318,0.00000165,-0.00000239,0.00000245,-0.00000063,0
 .00000277,0.00000970,-0.00002328,0.00002160,0.00001146,0.00000909,-0.0
 0000241,-0.00000937,0.00000344,0.00000140,-0.00000156,-0.00000373,-0.0
 0000053,0.00000801,-0.00000656,-0.00000549,-0.00000801,-0.00000095,0.0
 0000073,0.00000036,0.00000055,0.00000096,-0.00000082,0.00000295,0.0000
 0300,0.00000132,0.00000171,0.00000010,0.00000486,0.00000080,0.00000102
 ,-0.00000011,0.00000043,-0.00000482,0.00000215,-0.00000516,-0.00000138
 ,0.00000114,0.00000671,-0.00001854,0.00000258,-0.00001689,0.00000430,-
 0.00000205,-0.00000057,0.00000677,0.00000172,0.00000250,-0.00000398,0.
 00000321,0.00001286,-0.00001883,0.00000011,-0.00000087,-0.00000132,-0.
 00000279,-0.00000121,0.00000003,0.00000214,-0.00000372,0.00000047,0.00
 000557,-0.00000035,0.00000142,0.00000493,-0.00000132,0.00000284,-0.000
 00056,0.00000105,0.00000573,0.00000247,-0.00000650,-0.00000060,-0.0000
 0726,-0.00001051,-0.00000533,-0.00000988,-0.00000156,-0.00000141,0.000
 00101,-0.00000196,0.00000352,0.00000056,0.00000318,0.00000296,0.000004
 00,0.00000176,0.00000373,0.00000067,0.00000216,0.00000144,0.00000115,0
 .00000533,0.00000184,0.00000585,-0.00000361,0.00000066,-0.00000197,0.0
 0000807,-0.00000280,0.00000372,0.00000051,0.00000468,-0.00000190,-0.00
 000452,0.00000664,0.00000151,-0.00000102,0.00000140,0.00000476,-0.0000
 2112,-0.00001282,-0.00000502,0.00000312,-0.00000055,0.00001206,-0.0000
 0051,-0.00000038,-0.00000441,-0.00000598,0.00001104,0.00000382,0.00005
 796,0.00005242,0.00004889,0.00002878,-0.00007990,0.00002463,-0.0000130
 5,0.00003085,-0.00002801,-0.00003451,0.00002782,-0.00000584,0.00001411
 ,-0.00002307,-0.00000853,0.00001469,-0.00001274,-0.00000013,0.00001005
 ,0.00000508,0.00000264,0.00000469,0.00000655,0.00000992,0.00001364,-0.
 00000271,-0.00000051,-0.00000103,0.00000040,-0.00000224,0.,-0.00000406
 ,0.00000075,0.00000237,-0.00000284,-0.00000069,-0.00001997,0.00001314,
 0.00002911,-0.00000111,0.00000225,0.00000886,-0.00000918,-0.00000242,-
 0.00000349,-0.00000536,0.00000332,-0.00000018,0.00000131,-0.00000342,-
 0.00000361,0.00000072,-0.00000602,0.00000226,-0.00000505,-0.00000974,-
 0.00000453,-0.00001441,0.00000767,-0.00001056,0.00000188,0.00001314,-0
 .00000621,0.00000078,0.00000023,-0.00000103,0.00000317,-0.00000190,0.0
 0000059\\\@
 The archive entry for this job was punched.


 WHEN YOU REACH FOR THE STARS, YOU MAY NOT QUITE GET ONE,
 BUT YOU WON'T COME UP WITH A HANDFUL OF MUD, EITHER.

                                         -- LEO BURNETT (AD AGENCY HEAD)
 Job cpu time:       1 days 18 hours  9 minutes 16.5 seconds.
 Elapsed time:       0 days  2 hours 40 minutes 53.8 seconds.
 File lengths (MBytes):  RWF=   7470 Int=      0 D2E=      0 Chk=     45 Scr=      1
 Normal termination of Gaussian 16 at Sun Dec  8 00:52:02 2024.
