/mnt/lustre/scratch/nvme/SLURM/9663714/usccqdma.Z353i8B4Us
OMP_STACKSIZE=0m
GAUSS_PDEF=16
GAUSS_MDEF=65536MB
GAUSS_RDEF=SCF=Direct
 Entering Gaussian System, Link 0=g16.exe
 Initial command:
 /opt/cesga/2020/software/Core/g16/c1/l1.exe "/mnt/lustre/scratch/nvme/SLURM/9663714/usccqdma.Z353i8B4Us/Gau-898667.inp" -scrdir="/mnt/lustre/scratch/nvme/SLURM/9663714/usccqdma.Z353i8B4Us/"
 Default is to use a total of  16 processors:
                               16 via shared-memory
                                1 via Linda
 Entering Link 1 = /opt/cesga/2020/software/Core/g16/c1/l1.exe PID=    898693.
  
 Copyright (c) 1988-2019, Gaussian, Inc.  All Rights Reserved.
  
 This is part of the Gaussian(R) 16 program.  It is based on
 the Gaussian(R) 09 system (copyright 2009, Gaussian, Inc.),
 the Gaussian(R) 03 system (copyright 2003, Gaussian, Inc.),
 the Gaussian(R) 98 system (copyright 1998, Gaussian, Inc.),
 the Gaussian(R) 94 system (copyright 1995, Gaussian, Inc.),
 the Gaussian 92(TM) system (copyright 1992, Gaussian, Inc.),
 the Gaussian 90(TM) system (copyright 1990, Gaussian, Inc.),
 the Gaussian 88(TM) system (copyright 1988, Gaussian, Inc.),
 the Gaussian 86(TM) system (copyright 1986, Carnegie Mellon
 University), and the Gaussian 82(TM) system (copyright 1983,
 Carnegie Mellon University). Gaussian is a federally registered
 trademark of Gaussian, Inc.
  
 This software contains proprietary and confidential information,
 including trade secrets, belonging to Gaussian, Inc.
  
 This software is provided under written license and may be
 used, copied, transmitted, or stored only in accord with that
 written license.
  
 The following legend is applicable only to US Government
 contracts under FAR:
  
                    RESTRICTED RIGHTS LEGEND
  
 Use, reproduction and disclosure by the US Government is
 subject to restrictions as set forth in subparagraphs (a)
 and (c) of the Commercial Computer Software - Restricted
 Rights clause in FAR 52.227-19.
  
 Gaussian, Inc.
 340 Quinnipiac St., Bldg. 40, Wallingford CT 06492
  
  
 ---------------------------------------------------------------
 Warning -- This program may not be used in any manner that
 competes with the business of Gaussian, Inc. or will provide
 assistance to any competitor of Gaussian, Inc.  The licensee
 of this program is prohibited from giving any competitor of
 Gaussian, Inc. access to this program.  By using this program,
 the user acknowledges that Gaussian, Inc. is engaged in the
 business of creating and licensing software in the field of
 computational chemistry and represents and warrants to the
 licensee that it is not a competitor of Gaussian, Inc. and that
 it will not use this program in any manner prohibited above.
 ---------------------------------------------------------------
  

 Cite this work as:
 Gaussian 16, Revision C.01,
 M. J. Frisch, G. W. Trucks, H. B. Schlegel, G. E. Scuseria, 
 M. A. Robb, J. R. Cheeseman, G. Scalmani, V. Barone, 
 G. A. Petersson, H. Nakatsuji, X. Li, M. Caricato, A. V. Marenich, 
 J. Bloino, B. G. Janesko, R. Gomperts, B. Mennucci, H. P. Hratchian, 
 J. V. Ortiz, A. F. Izmaylov, J. L. Sonnenberg, D. Williams-Young, 
 F. Ding, F. Lipparini, F. Egidi, J. Goings, B. Peng, A. Petrone, 
 T. Henderson, D. Ranasinghe, V. G. Zakrzewski, J. Gao, N. Rega, 
 G. Zheng, W. Liang, M. Hada, M. Ehara, K. Toyota, R. Fukuda, 
 J. Hasegawa, M. Ishida, T. Nakajima, Y. Honda, O. Kitao, H. Nakai, 
 T. Vreven, K. Throssell, J. A. Montgomery, Jr., J. E. Peralta, 
 F. Ogliaro, M. J. Bearpark, J. J. Heyd, E. N. Brothers, K. N. Kudin, 
 V. N. Staroverov, T. A. Keith, R. Kobayashi, J. Normand, 
 K. Raghavachari, A. P. Rendell, J. C. Burant, S. S. Iyengar, 
 J. Tomasi, M. Cossi, J. M. Millam, M. Klene, C. Adamo, R. Cammi, 
 J. W. Ochterski, R. L. Martin, K. Morokuma, O. Farkas, 
 J. B. Foresman, and D. J. Fox, Gaussian, Inc., Wallingford CT, 2019.
 
 ******************************************
 Gaussian 16:  ES64L-G16RevC.01  3-Jul-2019
                 7-Dec-2024 
 ******************************************
 Default route: SCF=Direct
 ----------------------------------------------------
 # m06/genecp scf=tight int=ultrafine 5d freq=noraman
 ----------------------------------------------------
 1/10=4,30=1,38=1/1,3;
 2/12=2,17=6,18=5,40=1/2;
 3/5=7,8=1,11=2,16=1,17=8,25=1,30=1,71=2,74=-54,75=-5,140=1/1,2,3;
 4//1;
 5/5=2,32=2,38=5,98=1/2;
 8/6=4,10=90,11=11/1;
 11/6=1,8=1,9=11,15=111,16=1/1,2,10;
 10/6=1/2;
 6/7=2,8=2,9=2,10=2,28=1/1;
 7/8=1,10=1,25=1/1,2,3,16;
 1/10=4,30=1/3;
 99//99;
 ------
 OPT-TS
 ------
 Symbolic Z-matrix:
 Charge =  0 Multiplicity = 1
 C                     2.07458   0.02898   2.01472 
 C                     2.65438   1.29152   0.16909 
 C                     3.86212   1.67031   0.73266 
 C                     4.16042   1.21931   2.01382 
 C                     3.25962   0.38979   2.65962 
 C                     1.11004  -0.92217   2.59083 
 C                    -0.82999  -2.15077   2.26888 
 C                    -0.67821  -2.80542   3.48141 
 C                     0.41014  -2.48298   4.28139 
 C                     1.31521  -1.53962   3.82482 
 H                     2.35837   1.64061  -0.81778 
 H                     5.09357   1.49908   2.49961 
 H                     3.49068   0.01039   3.65057 
 H                    -1.65259  -2.37699   1.59242 
 H                     0.5634   -2.97013   5.2422 
 H                     2.18862  -1.29604   4.42249 
 N                     1.77525   0.50496   0.79448 
 N                     0.02621  -1.21482   1.83995 
 Ir                   -0.18096  -0.21139  -0.10776 
 O                     0.27128   2.77215   0.08713 
 O                    -2.21685   0.70623   2.01967 
 O                    -1.89428  -1.29679  -2.40361 
 B                    -2.00868   0.56126   0.65181 
 B                    -0.65728   1.84597  -0.38311 
 B                    -1.65955  -1.26808  -1.0432 
 O                    -2.43591  -2.23316  -0.39748 
 O                    -1.53345   2.46423  -1.26213 
 C                    -0.95292   3.71314  -1.6524 
 C                    -0.06207   4.06702  -0.42703 
 C                    -3.03927  -2.12477  -2.6497 
 C                    -3.06361  -3.05177  -1.39688 
 C                    -3.63253   0.63225   2.26309 
 C                    -4.22279   1.08761   0.89987 
 O                    -3.22281   0.64112  -0.02143 
 C                     1.2216    4.8064   -0.75515 
 H                     1.00774   5.78535  -1.20786 
 H                     1.79339   4.97698   0.16679 
 H                     1.857     4.23861  -1.44483 
 C                    -0.80686   4.80863   0.67339 
 H                    -0.17606   4.83521   1.57057 
 H                    -1.04709   5.84111   0.38601 
 H                    -1.73817   4.29148   0.93631 
 C                    -0.14751   3.44553  -2.91875 
 H                     0.28665   4.3638   -3.33683 
 H                     0.66201   2.72624  -2.73026 
 H                    -0.81315   3.00032  -3.66821 
 C                    -2.05922   4.70602  -1.94741 
 H                    -2.74371   4.81518  -1.09858 
 H                    -1.64352   5.69414  -2.19283 
 H                    -2.6441    4.35938  -2.8088 
 C                    -3.97012  -0.81743   2.58794 
 H                    -3.34532  -1.14664   3.42929 
 H                    -5.02334  -0.93253   2.87819 
 H                    -3.7679   -1.47234   1.72805 
 C                    -3.97477   1.52115   3.44118 
 H                    -5.06259   1.56273   3.59659 
 H                    -3.51737   1.119     4.3543 
 H                    -3.60144   2.54128   3.29974 
 C                    -5.55478   0.45934   0.53953 
 H                    -6.31933   0.70599   1.29048 
 H                    -5.8971    0.84496  -0.42982 
 H                    -5.48065  -0.63202   0.46329 
 C                    -4.32115   2.60033   0.76138 
 H                    -5.1392    3.01562   1.36566 
 H                    -3.38241   3.08299   1.061 
 H                    -4.49916   2.84331  -0.2936 
 C                    -4.44768  -3.43587  -0.91305 
 H                    -4.99033  -4.00527  -1.68137 
 H                    -4.36617  -4.06781  -0.01843 
 H                    -5.04119  -2.55183  -0.65159 
 C                    -2.20735  -4.30199  -1.55024 
 H                    -2.65194  -5.02222  -2.25016 
 H                    -1.19592  -4.0546   -1.89805 
 H                    -2.11243  -4.78819  -0.57059 
 C                    -2.84512  -2.84944  -3.96719 
 H                    -3.66816  -3.55486  -4.15281 
 H                    -2.83238  -2.1208   -4.78754 
 H                    -1.89807  -3.40024  -3.99267 
 C                    -4.24526  -1.20003  -2.73864 
 H                    -4.06647  -0.47311  -3.54067 
 H                    -5.16976  -1.74831  -2.96634 
 H                    -4.37005  -0.63563  -1.80658 
 H                    -0.11303   0.31498  -1.62929 
 C                     3.40615  -1.65785  -0.72649 
 O                     3.43263  -2.10308   0.41955 
 C                     4.68259  -1.16338  -1.39472 
 H                     4.90275  -1.77424  -2.28629 
 H                     4.52524  -0.1403   -1.77828 
 C                     0.98128  -1.92507  -0.8382 
 H                     0.42419  -2.49141  -1.59818 
 H                     1.19992  -2.59995  -0.004 
 N                     2.25618  -1.56826  -1.45182 
 C                     2.19085  -0.97438  -2.76735 
 H                     3.06716  -1.23217  -3.37189 
 H                     1.29812  -1.35379  -3.27892 
 H                     2.09654   0.12522  -2.73234 
 C                     5.8691   -1.17891  -0.44819 
 H                     5.58087  -0.69035   0.49525 
 H                     6.10705  -2.2173   -0.17275 
 C                     7.09171  -0.49191  -1.03255 
 H                     7.37754  -0.97127  -1.98559 
 H                     6.83672   0.55258  -1.2914 
 C                     8.28428  -0.49474  -0.08812 
 H                     7.99255  -0.01202   0.85968 
 H                     8.53619  -1.53527   0.17286 
 C                     9.50078   0.20272  -0.67288 
 H                     10.35275   0.19509   0.0184 
 H                     9.82348  -0.2835   -1.60418 
 H                     9.27672   1.25152  -0.91416 
 H                    -1.40618  -3.55491   3.78248 
 H                     4.54794   2.30626   0.17684 
 

 GradGradGradGradGradGradGradGradGradGradGradGradGradGradGradGradGradGrad
 Berny optimization.
 Initialization pass.
 Trust Radius=3.00D-01 FncErr=1.00D-07 GrdErr=1.00D-07 EigMax=2.50D+02 EigMin=1.00D-04
 Number of steps in this run=      2 maximum allowed number of steps=      2.
 GradGradGradGradGradGradGradGradGradGradGradGradGradGradGradGradGradGrad

 Stoichiometry    C36H61B3IrN3O7
 Framework group  C1[X(C36H61B3IrN3O7)]
 Deg. of freedom   327
 Full point group                 C1      NOp   1
 Largest Abelian subgroup         C1      NOp   1
 Largest concise Abelian subgroup C1      NOp   1
                         Standard orientation:                         
 ---------------------------------------------------------------------
 Center     Atomic      Atomic             Coordinates (Angstroms)
 Number     Number       Type             X           Y           Z
 ---------------------------------------------------------------------
      1          6           0        2.074581    0.028980    2.014721
      2          6           0        2.654381    1.291520    0.169091
      3          6           0        3.862121    1.670310    0.732661
      4          6           0        4.160421    1.219310    2.013821
      5          6           0        3.259621    0.389790    2.659621
      6          6           0        1.110041   -0.922170    2.590831
      7          6           0       -0.829989   -2.150770    2.268881
      8          6           0       -0.678209   -2.805420    3.481411
      9          6           0        0.410141   -2.482980    4.281391
     10          6           0        1.315211   -1.539620    3.824821
     11          1           0        2.358371    1.640610   -0.817779
     12          1           0        5.093571    1.499080    2.499611
     13          1           0        3.490681    0.010390    3.650571
     14          1           0       -1.652589   -2.376990    1.592421
     15          1           0        0.563401   -2.970130    5.242201
     16          1           0        2.188621   -1.296040    4.422491
     17          7           0        1.775251    0.504960    0.794481
     18          7           0        0.026211   -1.214820    1.839951
     19         77           0       -0.180959   -0.211390   -0.107759
     20          8           0        0.271281    2.772150    0.087131
     21          8           0       -2.216849    0.706230    2.019671
     22          8           0       -1.894279   -1.296790   -2.403609
     23          5           0       -2.008679    0.561260    0.651811
     24          5           0       -0.657279    1.845970   -0.383109
     25          5           0       -1.659549   -1.268080   -1.043199
     26          8           0       -2.435909   -2.233160   -0.397479
     27          8           0       -1.533449    2.464230   -1.262129
     28          6           0       -0.952919    3.713140   -1.652399
     29          6           0       -0.062069    4.067020   -0.427029
     30          6           0       -3.039269   -2.124770   -2.649699
     31          6           0       -3.063609   -3.051770   -1.396879
     32          6           0       -3.632529    0.632250    2.263091
     33          6           0       -4.222789    1.087610    0.899871
     34          8           0       -3.222809    0.641120   -0.021429
     35          6           0        1.221601    4.806400   -0.755149
     36          1           0        1.007741    5.785350   -1.207859
     37          1           0        1.793391    4.976980    0.166791
     38          1           0        1.857001    4.238610   -1.444829
     39          6           0       -0.806859    4.808630    0.673391
     40          1           0       -0.176059    4.835210    1.570571
     41          1           0       -1.047089    5.841110    0.386011
     42          1           0       -1.738169    4.291480    0.936311
     43          6           0       -0.147509    3.445530   -2.918749
     44          1           0        0.286651    4.363800   -3.336829
     45          1           0        0.662011    2.726240   -2.730259
     46          1           0       -0.813149    3.000320   -3.668209
     47          6           0       -2.059219    4.706020   -1.947409
     48          1           0       -2.743709    4.815180   -1.098579
     49          1           0       -1.643519    5.694140   -2.192829
     50          1           0       -2.644099    4.359380   -2.808799
     51          6           0       -3.970119   -0.817430    2.587941
     52          1           0       -3.345319   -1.146640    3.429291
     53          1           0       -5.023339   -0.932530    2.878191
     54          1           0       -3.767899   -1.472340    1.728051
     55          6           0       -3.974769    1.521150    3.441181
     56          1           0       -5.062589    1.562730    3.596591
     57          1           0       -3.517369    1.119000    4.354301
     58          1           0       -3.601439    2.541280    3.299741
     59          6           0       -5.554779    0.459340    0.539531
     60          1           0       -6.319329    0.705990    1.290481
     61          1           0       -5.897099    0.844960   -0.429819
     62          1           0       -5.480649   -0.632020    0.463291
     63          6           0       -4.321149    2.600330    0.761381
     64          1           0       -5.139199    3.015620    1.365661
     65          1           0       -3.382409    3.082990    1.061001
     66          1           0       -4.499159    2.843310   -0.293599
     67          6           0       -4.447679   -3.435870   -0.913049
     68          1           0       -4.990329   -4.005270   -1.681369
     69          1           0       -4.366169   -4.067810   -0.018429
     70          1           0       -5.041189   -2.551830   -0.651589
     71          6           0       -2.207349   -4.301990   -1.550239
     72          1           0       -2.651939   -5.022220   -2.250159
     73          1           0       -1.195919   -4.054600   -1.898049
     74          1           0       -2.112429   -4.788190   -0.570589
     75          6           0       -2.845119   -2.849440   -3.967189
     76          1           0       -3.668159   -3.554860   -4.152809
     77          1           0       -2.832379   -2.120800   -4.787539
     78          1           0       -1.898069   -3.400240   -3.992669
     79          6           0       -4.245259   -1.200030   -2.738639
     80          1           0       -4.066469   -0.473110   -3.540669
     81          1           0       -5.169759   -1.748310   -2.966339
     82          1           0       -4.370049   -0.635630   -1.806579
     83          1           0       -0.113029    0.314980   -1.629289
     84          6           0        3.406151   -1.657850   -0.726489
     85          8           0        3.432631   -2.103080    0.419551
     86          6           0        4.682591   -1.163380   -1.394719
     87          1           0        4.902751   -1.774240   -2.286289
     88          1           0        4.525241   -0.140300   -1.778279
     89          6           0        0.981281   -1.925070   -0.838199
     90          1           0        0.424191   -2.491410   -1.598179
     91          1           0        1.199921   -2.599950   -0.003999
     92          7           0        2.256181   -1.568260   -1.451819
     93          6           0        2.190851   -0.974380   -2.767349
     94          1           0        3.067161   -1.232170   -3.371889
     95          1           0        1.298121   -1.353790   -3.278919
     96          1           0        2.096541    0.125220   -2.732339
     97          6           0        5.869101   -1.178910   -0.448189
     98          1           0        5.580871   -0.690350    0.495251
     99          1           0        6.107051   -2.217300   -0.172749
    100          6           0        7.091711   -0.491910   -1.032549
    101          1           0        7.377541   -0.971270   -1.985589
    102          1           0        6.836721    0.552580   -1.291399
    103          6           0        8.284281   -0.494740   -0.088119
    104          1           0        7.992551   -0.012020    0.859681
    105          1           0        8.536191   -1.535270    0.172861
    106          6           0        9.500781    0.202720   -0.672879
    107          1           0       10.352751    0.195090    0.018401
    108          1           0        9.823481   -0.283500   -1.604179
    109          1           0        9.276721    1.251520   -0.914159
    110          1           0       -1.406179   -3.554910    3.782481
    111          1           0        4.547941    2.306260    0.176841
 ---------------------------------------------------------------------
 Rotational constants (GHZ):           0.0811950           0.0459728           0.0420459
 General basis read from cards:  (5D, 7F)
 ======================================================================================================
                                       Pseudopotential Parameters
 ======================================================================================================
  Center     Atomic      Valence      Angular      Power
  Number     Number     Electrons     Momentum     of R      Exponent        Coefficient   SO-Coeffient
 ======================================================================================================
    1          6
                                   No pseudopotential on this center.
    2          6
                                   No pseudopotential on this center.
    3          6
                                   No pseudopotential on this center.
    4          6
                                   No pseudopotential on this center.
    5          6
                                   No pseudopotential on this center.
    6          6
                                   No pseudopotential on this center.
    7          6
                                   No pseudopotential on this center.
    8          6
                                   No pseudopotential on this center.
    9          6
                                   No pseudopotential on this center.
   10          6
                                   No pseudopotential on this center.
   11          1
                                   No pseudopotential on this center.
   12          1
                                   No pseudopotential on this center.
   13          1
                                   No pseudopotential on this center.
   14          1
                                   No pseudopotential on this center.
   15          1
                                   No pseudopotential on this center.
   16          1
                                   No pseudopotential on this center.
   17          7
                                   No pseudopotential on this center.
   18          7
                                   No pseudopotential on this center.
   19         77           17
                                      G and up 
                                                     1      823.5880147       -0.15780140    0.00000000
                                                     2      364.6613336    -1517.52704460    0.00000000
                                                     2       55.7082801     -316.53065290    0.00000000
                                                     2       12.0464544      -91.88809410    0.00000000
                                                     2        3.5120610       -9.22417730    0.00000000
                                      S - G
                                                     0      188.0490770        3.15780140    0.00000000
                                                     1      340.4194712       26.83225770    0.00000000
                                                     2      128.2373673      800.42500070    0.00000000
                                                     2       33.8644961      369.40506830    0.00000000
                                                     2        4.7560005      242.41718990    0.00000000
                                                     2        3.9649974     -118.21732820    0.00000000
                                      P - G
                                                     0      289.7291139        2.15780140    0.00000000
                                                     1       87.4633789       61.96786100    0.00000000
                                                     2       30.4363766      269.05819860    0.00000000
                                                     2        4.0553412      231.16547930    0.00000000
                                                     2        3.5525341     -133.69526670    0.00000000
                                      D - G
                                                     0      136.4017106        3.15780140    0.00000000
                                                     1       95.0776925       45.93498030    0.00000000
                                                     2       49.2258410      359.03446680    0.00000000
                                                     2       15.0874145      176.47401190    0.00000000
                                                     2        4.0405764       54.51552860    0.00000000
                                      F - G
                                                     0      127.3507908        3.95461970    0.00000000
                                                     1       66.2364374       52.97736550    0.00000000
                                                     2       34.4299229      274.86433830    0.00000000
                                                     2       10.1995721      137.20473380    0.00000000
                                                     2        2.5409702       14.86333050    0.00000000
   20          8
                                   No pseudopotential on this center.
   21          8
                                   No pseudopotential on this center.
   22          8
                                   No pseudopotential on this center.
   23          5
                                   No pseudopotential on this center.
   24          5
                                   No pseudopotential on this center.
   25          5
                                   No pseudopotential on this center.
   26          8
                                   No pseudopotential on this center.
   27          8
                                   No pseudopotential on this center.
   28          6
                                   No pseudopotential on this center.
   29          6
                                   No pseudopotential on this center.
   30          6
                                   No pseudopotential on this center.
   31          6
                                   No pseudopotential on this center.
   32          6
                                   No pseudopotential on this center.
   33          6
                                   No pseudopotential on this center.
   34          8
                                   No pseudopotential on this center.
   35          6
                                   No pseudopotential on this center.
   36          1
                                   No pseudopotential on this center.
   37          1
                                   No pseudopotential on this center.
   38          1
                                   No pseudopotential on this center.
   39          6
                                   No pseudopotential on this center.
   40          1
                                   No pseudopotential on this center.
   41          1
                                   No pseudopotential on this center.
   42          1
                                   No pseudopotential on this center.
   43          6
                                   No pseudopotential on this center.
   44          1
                                   No pseudopotential on this center.
   45          1
                                   No pseudopotential on this center.
   46          1
                                   No pseudopotential on this center.
   47          6
                                   No pseudopotential on this center.
   48          1
                                   No pseudopotential on this center.
   49          1
                                   No pseudopotential on this center.
   50          1
                                   No pseudopotential on this center.
   51          6
                                   No pseudopotential on this center.
   52          1
                                   No pseudopotential on this center.
   53          1
                                   No pseudopotential on this center.
   54          1
                                   No pseudopotential on this center.
   55          6
                                   No pseudopotential on this center.
   56          1
                                   No pseudopotential on this center.
   57          1
                                   No pseudopotential on this center.
   58          1
                                   No pseudopotential on this center.
   59          6
                                   No pseudopotential on this center.
   60          1
                                   No pseudopotential on this center.
   61          1
                                   No pseudopotential on this center.
   62          1
                                   No pseudopotential on this center.
   63          6
                                   No pseudopotential on this center.
   64          1
                                   No pseudopotential on this center.
   65          1
                                   No pseudopotential on this center.
   66          1
                                   No pseudopotential on this center.
   67          6
                                   No pseudopotential on this center.
   68          1
                                   No pseudopotential on this center.
   69          1
                                   No pseudopotential on this center.
   70          1
                                   No pseudopotential on this center.
   71          6
                                   No pseudopotential on this center.
   72          1
                                   No pseudopotential on this center.
   73          1
                                   No pseudopotential on this center.
   74          1
                                   No pseudopotential on this center.
   75          6
                                   No pseudopotential on this center.
   76          1
                                   No pseudopotential on this center.
   77          1
                                   No pseudopotential on this center.
   78          1
                                   No pseudopotential on this center.
   79          6
                                   No pseudopotential on this center.
   80          1
                                   No pseudopotential on this center.
   81          1
                                   No pseudopotential on this center.
   82          1
                                   No pseudopotential on this center.
   83          1
                                   No pseudopotential on this center.
   84          6
                                   No pseudopotential on this center.
   85          8
                                   No pseudopotential on this center.
   86          6
                                   No pseudopotential on this center.
   87          1
                                   No pseudopotential on this center.
   88          1
                                   No pseudopotential on this center.
   89          6
                                   No pseudopotential on this center.
   90          1
                                   No pseudopotential on this center.
   91          1
                                   No pseudopotential on this center.
   92          7
                                   No pseudopotential on this center.
   93          6
                                   No pseudopotential on this center.
   94          1
                                   No pseudopotential on this center.
   95          1
                                   No pseudopotential on this center.
   96          1
                                   No pseudopotential on this center.
   97          6
                                   No pseudopotential on this center.
   98          1
                                   No pseudopotential on this center.
   99          1
                                   No pseudopotential on this center.
  100          6
                                   No pseudopotential on this center.
  101          1
                                   No pseudopotential on this center.
  102          1
                                   No pseudopotential on this center.
  103          6
                                   No pseudopotential on this center.
  104          1
                                   No pseudopotential on this center.
  105          1
                                   No pseudopotential on this center.
  106          6
                                   No pseudopotential on this center.
  107          1
                                   No pseudopotential on this center.
  108          1
                                   No pseudopotential on this center.
  109          1
                                   No pseudopotential on this center.
  110          1
                                   No pseudopotential on this center.
  111          1
                                   No pseudopotential on this center.
 ======================================================================================================
 There are   881 symmetry adapted cartesian basis functions of A   symmetry.
 There are   830 symmetry adapted basis functions of A   symmetry.
   830 basis functions,  1659 primitive gaussians,   881 cartesian basis functions
   193 alpha electrons      193 beta electrons
       nuclear repulsion energy      8110.8302199127 Hartrees.
 NAtoms=  111 NActive=  111 NUniq=  111 SFac= 1.00D+00 NAtFMM=   60 NAOKFM=T Big=T
 Integral buffers will be    131072 words long.
 Raffenetti 2 integral format.
 Two-electron integral symmetry is turned on.
 One-electron integrals computed using PRISM.
   1 Symmetry operations used in ECPInt.
 ECPInt:  NShTT=   53301 NPrTT=  320676 LenC2=   39719 LenP2D=  122412.
 LDataN:  DoStor=T MaxTD1= 6 Len=  172
 NBasis=   830 RedAO= T EigKep=  5.41D-04  NBF=   830
 NBsUse=   830 1.00D-06 EigRej= -1.00D+00 NBFU=   830
 Defaulting to unpruned grid for atomic number  77.
 ExpMin= 2.90D-02 ExpMax= 5.48D+03 ExpMxC= 8.25D+02 IAcc=3 IRadAn=         5 AccDes= 0.00D+00
 Harris functional with IExCor= 1009 and IRadAn=       5 diagonalized for initial guess.
 HarFok:  IExCor= 1009 AccDes= 0.00D+00 IRadAn=         5 IDoV= 1 UseB2=F ITyADJ=14
 ICtDFT=  3500011 ScaDFX=  1.000000  1.000000  1.000000  1.000000
 Defaulting to unpruned grid for atomic number  77.
 FoFCou: FMM=F IPFlag=           0 FMFlag=      100000 FMFlg1=        2001
         NFxFlg=           0 DoJE=T BraDBF=F KetDBF=T FulRan=T
         wScrn=  0.000000 ICntrl=       500 IOpCl=  0 I1Cent=   200000004 NGrid=           0
         NMat0=    1 NMatS0=      1 NMatT0=    0 NMatD0=    1 NMtDS0=    0 NMtDT0=    0
 Petite list used in FoFCou.
 Requested convergence on RMS density matrix=1.00D-08 within 128 cycles.
 Requested convergence on MAX density matrix=1.00D-06.
 Requested convergence on             energy=1.00D-06.
 No special actions if energy rises.
 Defaulting to unpruned grid for atomic number  77.
 Defaulting to unpruned grid for atomic number  77.
 Defaulting to unpruned grid for atomic number  77.
 Defaulting to unpruned grid for atomic number  77.
 Defaulting to unpruned grid for atomic number  77.
 Defaulting to unpruned grid for atomic number  77.
 Defaulting to unpruned grid for atomic number  77.
 Defaulting to unpruned grid for atomic number  77.
 Defaulting to unpruned grid for atomic number  77.
 Defaulting to unpruned grid for atomic number  77.
 Defaulting to unpruned grid for atomic number  77.
 Defaulting to unpruned grid for atomic number  77.
 Defaulting to unpruned grid for atomic number  77.
 Defaulting to unpruned grid for atomic number  77.
 Defaulting to unpruned grid for atomic number  77.
 Defaulting to unpruned grid for atomic number  77.
 SCF Done:  E(RM06) =  -2277.51318938     A.U. after   15 cycles
            NFock= 15  Conv=0.89D-08     -V/T= 2.0391
 DoSCS=F DFT=T ScalE2(SS,OS)=  1.000000  1.000000
 Range of M.O.s used for correlation:     1   830
 NBasis=   830 NAE=   193 NBE=   193 NFC=     0 NFV=     0
 NROrb=    830 NOA=   193 NOB=   193 NVA=   637 NVB=   637
   1 Symmetry operations used in ECPInt.
 ECPInt:  NShTT=   53301 NPrTT=  320676 LenC2=   39719 LenP2D=  122412.
 LDataN:  DoStor=T MaxTD1= 7 Len=  274
 Number of processors reduced to   8 by ecpmxn.
 Symmetrizing basis deriv contribution to polar:
 IMax=3 JMax=2 DiffMx= 0.00D+00
 G2DrvN: will do   112 centers at a time, making    1 passes.
 Calling FoFCou, ICntrl=  3107 FMM=T I1Cent=   0 AccDes= 0.00D+00.
 Defaulting to unpruned grid for atomic number  77.
 Defaulting to unpruned grid for atomic number  77.
 Defaulting to unpruned grid for atomic number  77.
 Defaulting to unpruned grid for atomic number  77.
 Defaulting to unpruned grid for atomic number  77.
 Defaulting to unpruned grid for atomic number  77.
 Defaulting to unpruned grid for atomic number  77.
 Defaulting to unpruned grid for atomic number  77.
 Defaulting to unpruned grid for atomic number  77.
 Defaulting to unpruned grid for atomic number  77.
 Defaulting to unpruned grid for atomic number  77.
 Defaulting to unpruned grid for atomic number  77.
 Defaulting to unpruned grid for atomic number  77.
 Defaulting to unpruned grid for atomic number  77.
 Defaulting to unpruned grid for atomic number  77.
 Defaulting to unpruned grid for atomic number  77.
 End of G2Drv F.D. properties file   721 does not exist.
 End of G2Drv F.D. properties file   722 does not exist.
 End of G2Drv F.D. properties file   788 does not exist.
          IDoAtm=11111111111111111111111111111111111111111111111111
          IDoAtm=11111111111111111111111111111111111111111111111111
          IDoAtm=11111111111
          Differentiating once with respect to electric field.
                with respect to dipole field.
          Differentiating once with respect to nuclear coordinates.
 Defaulting to unpruned grid for atomic number  77.
 CalDSu exits because no D1Ps are significant.
 Defaulting to unpruned grid for atomic number  77.
 Defaulting to unpruned grid for atomic number  77.
 Defaulting to unpruned grid for atomic number  77.
 Defaulting to unpruned grid for atomic number  77.
 Defaulting to unpruned grid for atomic number  77.
 Defaulting to unpruned grid for atomic number  77.
 Defaulting to unpruned grid for atomic number  77.
 Defaulting to unpruned grid for atomic number  77.
 Defaulting to unpruned grid for atomic number  77.
 Defaulting to unpruned grid for atomic number  77.
 Defaulting to unpruned grid for atomic number  77.
 Defaulting to unpruned grid for atomic number  77.
 Defaulting to unpruned grid for atomic number  77.
 Defaulting to unpruned grid for atomic number  77.
 Defaulting to unpruned grid for atomic number  77.
 Defaulting to unpruned grid for atomic number  77.
          There are   336 degrees of freedom in the 1st order CPHF.  IDoFFX=6 NUNeed=     3.
    333 vectors produced by pass  0 Test12= 1.23D-13 1.00D-09 XBig12= 4.66D+02 6.47D+00.
 AX will form    72 AO Fock derivatives at one time.
    333 vectors produced by pass  1 Test12= 1.23D-13 1.00D-09 XBig12= 7.55D+01 1.22D+00.
    333 vectors produced by pass  2 Test12= 1.23D-13 1.00D-09 XBig12= 7.91D-01 8.80D-02.
    333 vectors produced by pass  3 Test12= 1.23D-13 1.00D-09 XBig12= 4.55D-03 5.43D-03.
    333 vectors produced by pass  4 Test12= 1.23D-13 1.00D-09 XBig12= 1.29D-05 2.74D-04.
    287 vectors produced by pass  5 Test12= 1.23D-13 1.00D-09 XBig12= 2.04D-08 9.53D-06.
     63 vectors produced by pass  6 Test12= 1.23D-13 1.00D-09 XBig12= 2.65D-11 3.50D-07.
      3 vectors produced by pass  7 Test12= 1.23D-13 1.00D-09 XBig12= 3.48D-14 1.26D-08.
 InvSVY:  IOpt=1 It=  1 EMax= 2.49D-14
 Solved reduced A of dimension  2018 with   336 vectors.
 Isotropic polarizability for W=    0.000000      499.43 Bohr**3.
 End of Minotr F.D. properties file   721 does not exist.
 End of Minotr F.D. properties file   722 does not exist.
 End of Minotr F.D. properties file   788 does not exist.
 Hyperfine terms turned off by default for NAtoms > 100.

 **********************************************************************

            Population analysis using the SCF Density.

 **********************************************************************

 Orbital symmetries:
       Occupied  (A) (A) (A) (A) (A) (A) (A) (A) (A) (A) (A) (A)
                 (A) (A) (A) (A) (A) (A) (A) (A) (A) (A) (A) (A)
                 (A) (A) (A) (A) (A) (A) (A) (A) (A) (A) (A) (A)
                 (A) (A) (A) (A) (A) (A) (A) (A) (A) (A) (A) (A)
                 (A) (A) (A) (A) (A) (A) (A) (A) (A) (A) (A) (A)
                 (A) (A) (A) (A) (A) (A) (A) (A) (A) (A) (A) (A)
                 (A) (A) (A) (A) (A) (A) (A) (A) (A) (A) (A) (A)
                 (A) (A) (A) (A) (A) (A) (A) (A) (A) (A) (A) (A)
                 (A) (A) (A) (A) (A) (A) (A) (A) (A) (A) (A) (A)
                 (A) (A) (A) (A) (A) (A) (A) (A) (A) (A) (A) (A)
                 (A) (A) (A) (A) (A) (A) (A) (A) (A) (A) (A) (A)
                 (A) (A) (A) (A) (A) (A) (A) (A) (A) (A) (A) (A)
                 (A) (A) (A) (A) (A) (A) (A) (A) (A) (A) (A) (A)
                 (A) (A) (A) (A) (A) (A) (A) (A) (A) (A) (A) (A)
                 (A) (A) (A) (A) (A) (A) (A) (A) (A) (A) (A) (A)
                 (A) (A) (A) (A) (A) (A) (A) (A) (A) (A) (A) (A)
                 (A)
       Virtual   (A) (A) (A) (A) (A) (A) (A) (A) (A) (A) (A) (A)
                 (A) (A) (A) (A) (A) (A) (A) (A) (A) (A) (A) (A)
                 (A) (A) (A) (A) (A) (A) (A) (A) (A) (A) (A) (A)
                 (A) (A) (A) (A) (A) (A) (A) (A) (A) (A) (A) (A)
                 (A) (A) (A) (A) (A) (A) (A) (A) (A) (A) (A) (A)
                 (A) (A) (A) (A) (A) (A) (A) (A) (A) (A) (A) (A)
                 (A) (A) (A) (A) (A) (A) (A) (A) (A) (A) (A) (A)
                 (A) (A) (A) (A) (A) (A) (A) (A) (A) (A) (A) (A)
                 (A) (A) (A) (A) (A) (A) (A) (A) (A) (A) (A) (A)
                 (A) (A) (A) (A) (A) (A) (A) (A) (A) (A) (A) (A)
                 (A) (A) (A) (A) (A) (A) (A) (A) (A) (A) (A) (A)
                 (A) (A) (A) (A) (A) (A) (A) (A) (A) (A) (A) (A)
                 (A) (A) (A) (A) (A) (A) (A) (A) (A) (A) (A) (A)
                 (A) (A) (A) (A) (A) (A) (A) (A) (A) (A) (A) (A)
                 (A) (A) (A) (A) (A) (A) (A) (A) (A) (A) (A) (A)
                 (A) (A) (A) (A) (A) (A) (A) (A) (A) (A) (A) (A)
                 (A) (A) (A) (A) (A) (A) (A) (A) (A) (A) (A) (A)
                 (A) (A) (A) (A) (A) (A) (A) (A) (A) (A) (A) (A)
                 (A) (A) (A) (A) (A) (A) (A) (A) (A) (A) (A) (A)
                 (A) (A) (A) (A) (A) (A) (A) (A) (A) (A) (A) (A)
                 (A) (A) (A) (A) (A) (A) (A) (A) (A) (A) (A) (A)
                 (A) (A) (A) (A) (A) (A) (A) (A) (A) (A) (A) (A)
                 (A) (A) (A) (A) (A) (A) (A) (A) (A) (A) (A) (A)
                 (A) (A) (A) (A) (A) (A) (A) (A) (A) (A) (A) (A)
                 (A) (A) (A) (A) (A) (A) (A) (A) (A) (A) (A) (A)
                 (A) (A) (A) (A) (A) (A) (A) (A) (A) (A) (A) (A)
                 (A) (A) (A) (A) (A) (A) (A) (A) (A) (A) (A) (A)
                 (A) (A) (A) (A) (A) (A) (A) (A) (A) (A) (A) (A)
                 (A) (A) (A) (A) (A) (A) (A) (A) (A) (A) (A) (A)
                 (A) (A) (A) (A) (A) (A) (A) (A) (A) (A) (A) (A)
                 (A) (A) (A) (A) (A) (A) (A) (A) (A) (A) (A) (A)
                 (A) (A) (A) (A) (A) (A) (A) (A) (A) (A) (A) (A)
                 (A) (A) (A) (A) (A) (A) (A) (A) (A) (A) (A) (A)
                 (A) (A) (A) (A) (A) (A) (A) (A) (A) (A) (A) (A)
                 (A) (A) (A) (A) (A) (A) (A) (A) (A) (A) (A) (A)
                 (A) (A) (A) (A) (A) (A) (A) (A) (A) (A) (A) (A)
                 (A) (A) (A) (A) (A) (A) (A) (A) (A) (A) (A) (A)
                 (A) (A) (A) (A) (A) (A) (A) (A) (A) (A) (A) (A)
                 (A) (A) (A) (A) (A) (A) (A) (A) (A) (A) (A) (A)
                 (A) (A) (A) (A) (A) (A) (A) (A) (A) (A) (A) (A)
                 (A) (A) (A) (A) (A) (A) (A) (A) (A) (A) (A) (A)
                 (A) (A) (A) (A) (A) (A) (A) (A) (A) (A) (A) (A)
                 (A) (A) (A) (A) (A) (A) (A) (A) (A) (A) (A) (A)
                 (A) (A) (A) (A) (A) (A) (A) (A) (A) (A) (A) (A)
                 (A) (A) (A) (A) (A) (A) (A) (A) (A) (A) (A) (A)
                 (A) (A) (A) (A) (A) (A) (A) (A) (A) (A) (A) (A)
                 (A) (A) (A) (A) (A) (A) (A) (A) (A) (A) (A) (A)
                 (A) (A) (A) (A) (A) (A) (A) (A) (A) (A) (A) (A)
                 (A) (A) (A) (A) (A) (A) (A) (A) (A) (A) (A) (A)
                 (A) (A) (A) (A) (A) (A) (A) (A) (A) (A) (A) (A)
                 (A) (A) (A) (A) (A) (A) (A) (A) (A) (A) (A) (A)
                 (A) (A) (A) (A) (A) (A) (A) (A) (A) (A) (A) (A)
                 (A) (A) (A) (A) (A) (A) (A) (A) (A) (A) (A) (A)
                 (A)
 The electronic state is 1-A.
 Alpha  occ. eigenvalues --  -19.20455 -19.20390 -19.20352 -19.19950 -19.19942
 Alpha  occ. eigenvalues --  -19.19603 -19.16204 -14.44570 -14.43690 -14.40185
 Alpha  occ. eigenvalues --  -10.31898 -10.31202 -10.31118 -10.29798 -10.29570
 Alpha  occ. eigenvalues --  -10.29395 -10.29304 -10.29275 -10.29261 -10.29215
 Alpha  occ. eigenvalues --  -10.28793 -10.28068 -10.28029 -10.27341 -10.27223
 Alpha  occ. eigenvalues --  -10.27001 -10.26883 -10.25812 -10.23707 -10.23561
 Alpha  occ. eigenvalues --  -10.23330 -10.23313 -10.22926 -10.22869 -10.22845
 Alpha  occ. eigenvalues --  -10.22772 -10.22731 -10.22625 -10.22609 -10.22507
 Alpha  occ. eigenvalues --  -10.22366 -10.22357 -10.22336 -10.22288 -10.22204
 Alpha  occ. eigenvalues --  -10.21175  -6.81382  -6.81024  -6.79930  -3.64607
 Alpha  occ. eigenvalues --   -2.06957  -2.06247  -2.05833  -1.06517  -1.06206
 Alpha  occ. eigenvalues --   -1.05882  -1.02020  -0.99565  -0.99170  -0.99139
 Alpha  occ. eigenvalues --   -0.99024  -0.96724  -0.91656  -0.83561  -0.82739
 Alpha  occ. eigenvalues --   -0.81983  -0.80951  -0.80664  -0.80434  -0.80122
 Alpha  occ. eigenvalues --   -0.76620  -0.76405  -0.75067  -0.74874  -0.74513
 Alpha  occ. eigenvalues --   -0.70668  -0.70417  -0.70170  -0.70057  -0.69524
 Alpha  occ. eigenvalues --   -0.68176  -0.67836  -0.67653  -0.67172  -0.67160
 Alpha  occ. eigenvalues --   -0.65078  -0.63778  -0.62814  -0.62163  -0.61444
 Alpha  occ. eigenvalues --   -0.61111  -0.59873  -0.57616  -0.56991  -0.55211
 Alpha  occ. eigenvalues --   -0.54644  -0.54387  -0.54308  -0.53306  -0.52976
 Alpha  occ. eigenvalues --   -0.52650  -0.52512  -0.51290  -0.50214  -0.48975
 Alpha  occ. eigenvalues --   -0.48580  -0.48419  -0.48174  -0.47269  -0.47010
 Alpha  occ. eigenvalues --   -0.46741  -0.46504  -0.46364  -0.46051  -0.45940
 Alpha  occ. eigenvalues --   -0.45549  -0.45326  -0.44991  -0.44772  -0.44443
 Alpha  occ. eigenvalues --   -0.44206  -0.43981  -0.43772  -0.43480  -0.43315
 Alpha  occ. eigenvalues --   -0.43016  -0.42941  -0.42427  -0.41697  -0.41568
 Alpha  occ. eigenvalues --   -0.40602  -0.40320  -0.40248  -0.40036  -0.39927
 Alpha  occ. eigenvalues --   -0.39903  -0.39675  -0.39650  -0.39504  -0.39381
 Alpha  occ. eigenvalues --   -0.39175  -0.39078  -0.38894  -0.38859  -0.38469
 Alpha  occ. eigenvalues --   -0.38320  -0.37963  -0.37792  -0.37629  -0.37291
 Alpha  occ. eigenvalues --   -0.37033  -0.36864  -0.36689  -0.36639  -0.36349
 Alpha  occ. eigenvalues --   -0.36090  -0.36055  -0.35852  -0.35725  -0.35150
 Alpha  occ. eigenvalues --   -0.35003  -0.34927  -0.34784  -0.34410  -0.34134
 Alpha  occ. eigenvalues --   -0.33465  -0.33228  -0.33101  -0.32798  -0.32451
 Alpha  occ. eigenvalues --   -0.32281  -0.32080  -0.31862  -0.31587  -0.31546
 Alpha  occ. eigenvalues --   -0.31228  -0.30795  -0.30503  -0.30298  -0.29787
 Alpha  occ. eigenvalues --   -0.29643  -0.28298  -0.27759  -0.26950  -0.26409
 Alpha  occ. eigenvalues --   -0.26255  -0.26012  -0.25510  -0.25089  -0.23516
 Alpha  occ. eigenvalues --   -0.23462  -0.22455  -0.17956
 Alpha virt. eigenvalues --   -0.06077  -0.02862  -0.02140   0.02188   0.02414
 Alpha virt. eigenvalues --    0.03188   0.05635   0.05797   0.06562   0.07066
 Alpha virt. eigenvalues --    0.07350   0.09077   0.09572   0.09956   0.10125
 Alpha virt. eigenvalues --    0.10735   0.11258   0.11490   0.11529   0.11671
 Alpha virt. eigenvalues --    0.12348   0.12440   0.12613   0.12792   0.13046
 Alpha virt. eigenvalues --    0.13679   0.13843   0.14058   0.14328   0.14496
 Alpha virt. eigenvalues --    0.14839   0.14923   0.14996   0.15293   0.15582
 Alpha virt. eigenvalues --    0.15713   0.15966   0.16100   0.16570   0.16654
 Alpha virt. eigenvalues --    0.16694   0.16836   0.17123   0.17225   0.17436
 Alpha virt. eigenvalues --    0.17528   0.17781   0.17829   0.18186   0.18271
 Alpha virt. eigenvalues --    0.18578   0.18702   0.18866   0.19131   0.19229
 Alpha virt. eigenvalues --    0.19391   0.19501   0.19698   0.19902   0.20168
 Alpha virt. eigenvalues --    0.20257   0.20460   0.20618   0.21007   0.21178
 Alpha virt. eigenvalues --    0.21337   0.21782   0.22016   0.22301   0.22551
 Alpha virt. eigenvalues --    0.22790   0.22896   0.23004   0.23188   0.23606
 Alpha virt. eigenvalues --    0.23800   0.23915   0.24023   0.24354   0.24395
 Alpha virt. eigenvalues --    0.24648   0.24681   0.24834   0.25025   0.25391
 Alpha virt. eigenvalues --    0.25849   0.26201   0.26532   0.26726   0.27097
 Alpha virt. eigenvalues --    0.27403   0.27508   0.27745   0.27892   0.28376
 Alpha virt. eigenvalues --    0.28463   0.28708   0.29176   0.29316   0.29651
 Alpha virt. eigenvalues --    0.30141   0.30345   0.30890   0.31153   0.31552
 Alpha virt. eigenvalues --    0.32178   0.32547   0.32926   0.33484   0.33903
 Alpha virt. eigenvalues --    0.35048   0.35933   0.36384   0.36724   0.37246
 Alpha virt. eigenvalues --    0.37941   0.38570   0.39257   0.39683   0.41050
 Alpha virt. eigenvalues --    0.41135   0.42254   0.44059   0.45079   0.45900
 Alpha virt. eigenvalues --    0.46783   0.48150   0.48546   0.49160   0.49673
 Alpha virt. eigenvalues --    0.49982   0.50527   0.50768   0.51257   0.51404
 Alpha virt. eigenvalues --    0.51501   0.51928   0.52273   0.52612   0.52765
 Alpha virt. eigenvalues --    0.53000   0.53265   0.53646   0.54154   0.55365
 Alpha virt. eigenvalues --    0.55579   0.55860   0.56065   0.56161   0.56505
 Alpha virt. eigenvalues --    0.56801   0.57067   0.57194   0.57727   0.58006
 Alpha virt. eigenvalues --    0.58168   0.58339   0.58819   0.58959   0.59092
 Alpha virt. eigenvalues --    0.59309   0.59479   0.59681   0.59963   0.60350
 Alpha virt. eigenvalues --    0.60672   0.60751   0.61288   0.61712   0.61920
 Alpha virt. eigenvalues --    0.62356   0.62557   0.62763   0.63025   0.63353
 Alpha virt. eigenvalues --    0.63789   0.64309   0.64584   0.65048   0.65177
 Alpha virt. eigenvalues --    0.65405   0.66045   0.66541   0.66631   0.67112
 Alpha virt. eigenvalues --    0.67532   0.67755   0.67918   0.68178   0.68824
 Alpha virt. eigenvalues --    0.69141   0.69507   0.69755   0.70091   0.70557
 Alpha virt. eigenvalues --    0.70916   0.71326   0.71466   0.71564   0.72002
 Alpha virt. eigenvalues --    0.72321   0.72828   0.72952   0.73358   0.73667
 Alpha virt. eigenvalues --    0.74119   0.74315   0.74669   0.75135   0.75257
 Alpha virt. eigenvalues --    0.75860   0.76433   0.76769   0.77286   0.77429
 Alpha virt. eigenvalues --    0.78023   0.78091   0.78560   0.78982   0.79177
 Alpha virt. eigenvalues --    0.79233   0.79986   0.80165   0.80533   0.80932
 Alpha virt. eigenvalues --    0.81655   0.82023   0.82230   0.82366   0.82792
 Alpha virt. eigenvalues --    0.83029   0.83386   0.83644   0.83759   0.84160
 Alpha virt. eigenvalues --    0.84567   0.84619   0.84813   0.84983   0.85199
 Alpha virt. eigenvalues --    0.85305   0.85540   0.86238   0.86596   0.86761
 Alpha virt. eigenvalues --    0.87074   0.87407   0.87702   0.87901   0.88073
 Alpha virt. eigenvalues --    0.88234   0.88407   0.88582   0.88778   0.89011
 Alpha virt. eigenvalues --    0.89236   0.89351   0.89726   0.89949   0.90248
 Alpha virt. eigenvalues --    0.90415   0.90702   0.90790   0.91113   0.91163
 Alpha virt. eigenvalues --    0.91699   0.91828   0.91890   0.92174   0.92363
 Alpha virt. eigenvalues --    0.92580   0.93129   0.93295   0.93601   0.93689
 Alpha virt. eigenvalues --    0.93998   0.94209   0.94631   0.94993   0.95371
 Alpha virt. eigenvalues --    0.95475   0.95562   0.95978   0.96241   0.96607
 Alpha virt. eigenvalues --    0.97018   0.97391   0.97978   0.98041   0.98125
 Alpha virt. eigenvalues --    0.98863   0.98973   0.99416   0.99762   0.99977
 Alpha virt. eigenvalues --    1.00668   1.00842   1.01858   1.02382   1.02760
 Alpha virt. eigenvalues --    1.02931   1.03379   1.03455   1.04053   1.04363
 Alpha virt. eigenvalues --    1.05134   1.05236   1.06597   1.07357   1.08088
 Alpha virt. eigenvalues --    1.08596   1.08983   1.09376   1.09775   1.11228
 Alpha virt. eigenvalues --    1.11949   1.12508   1.13327   1.13611   1.14485
 Alpha virt. eigenvalues --    1.14702   1.15264   1.15808   1.16418   1.16788
 Alpha virt. eigenvalues --    1.17680   1.18702   1.19084   1.19423   1.19769
 Alpha virt. eigenvalues --    1.20150   1.21080   1.21673   1.22184   1.22380
 Alpha virt. eigenvalues --    1.22591   1.23966   1.24371   1.25304   1.25907
 Alpha virt. eigenvalues --    1.26459   1.26979   1.27664   1.28527   1.29182
 Alpha virt. eigenvalues --    1.29495   1.30382   1.31015   1.32277   1.32435
 Alpha virt. eigenvalues --    1.33240   1.34119   1.34553   1.35886   1.36259
 Alpha virt. eigenvalues --    1.36775   1.37445   1.37959   1.38252   1.38896
 Alpha virt. eigenvalues --    1.39090   1.39898   1.40284   1.40804   1.42025
 Alpha virt. eigenvalues --    1.43108   1.43683   1.44073   1.44466   1.45185
 Alpha virt. eigenvalues --    1.45380   1.45858   1.46364   1.46581   1.46937
 Alpha virt. eigenvalues --    1.47350   1.47592   1.48218   1.48496   1.48636
 Alpha virt. eigenvalues --    1.49059   1.49494   1.49932   1.51144   1.51727
 Alpha virt. eigenvalues --    1.51971   1.52887   1.53008   1.53925   1.54340
 Alpha virt. eigenvalues --    1.57415   1.58788   1.59226   1.59777   1.60764
 Alpha virt. eigenvalues --    1.61688   1.62428   1.63435   1.63881   1.64647
 Alpha virt. eigenvalues --    1.65270   1.65802   1.66167   1.66493   1.67145
 Alpha virt. eigenvalues --    1.67830   1.68928   1.69638   1.69659   1.70312
 Alpha virt. eigenvalues --    1.70627   1.72042   1.72669   1.73117   1.73827
 Alpha virt. eigenvalues --    1.74342   1.74453   1.76059   1.76859   1.77174
 Alpha virt. eigenvalues --    1.77944   1.78912   1.79714   1.80031   1.80324
 Alpha virt. eigenvalues --    1.80738   1.81281   1.81415   1.81691   1.82294
 Alpha virt. eigenvalues --    1.83157   1.83424   1.84019   1.84288   1.85730
 Alpha virt. eigenvalues --    1.85799   1.86221   1.86588   1.86656   1.87349
 Alpha virt. eigenvalues --    1.87468   1.88172   1.88228   1.88590   1.89482
 Alpha virt. eigenvalues --    1.90376   1.90537   1.90916   1.91279   1.91502
 Alpha virt. eigenvalues --    1.91535   1.92178   1.92422   1.92631   1.92785
 Alpha virt. eigenvalues --    1.92962   1.93048   1.93151   1.93364   1.93623
 Alpha virt. eigenvalues --    1.94246   1.94436   1.94842   1.95168   1.95736
 Alpha virt. eigenvalues --    1.96748   1.97635   1.97780   1.98100   1.98533
 Alpha virt. eigenvalues --    1.99319   1.99938   2.00585   2.01116   2.01606
 Alpha virt. eigenvalues --    2.02038   2.02916   2.03254   2.03362   2.04194
 Alpha virt. eigenvalues --    2.04810   2.04990   2.05459   2.06163   2.06812
 Alpha virt. eigenvalues --    2.06888   2.07333   2.07761   2.08095   2.08254
 Alpha virt. eigenvalues --    2.08444   2.09289   2.09861   2.10348   2.10672
 Alpha virt. eigenvalues --    2.11605   2.11877   2.12409   2.12934   2.13460
 Alpha virt. eigenvalues --    2.13950   2.14444   2.14722   2.15117   2.15467
 Alpha virt. eigenvalues --    2.15842   2.16205   2.16514   2.16949   2.17540
 Alpha virt. eigenvalues --    2.17728   2.18183   2.18748   2.19192   2.19330
 Alpha virt. eigenvalues --    2.19459   2.19641   2.19874   2.20302   2.20576
 Alpha virt. eigenvalues --    2.21735   2.21987   2.22324   2.22568   2.22887
 Alpha virt. eigenvalues --    2.23200   2.23728   2.23954   2.24168   2.24454
 Alpha virt. eigenvalues --    2.24663   2.25247   2.25717   2.26417   2.26960
 Alpha virt. eigenvalues --    2.27258   2.27881   2.28282   2.28522   2.28907
 Alpha virt. eigenvalues --    2.29596   2.30418   2.30795   2.31396   2.32328
 Alpha virt. eigenvalues --    2.32680   2.33117   2.33609   2.33984   2.34375
 Alpha virt. eigenvalues --    2.34695   2.35341   2.36425   2.36570   2.37594
 Alpha virt. eigenvalues --    2.38512   2.38716   2.39053   2.39502   2.40561
 Alpha virt. eigenvalues --    2.40929   2.42173   2.42547   2.45386   2.46906
 Alpha virt. eigenvalues --    2.47445   2.48321   2.48366   2.48959   2.49367
 Alpha virt. eigenvalues --    2.50227   2.51034   2.51329   2.51941   2.54005
 Alpha virt. eigenvalues --    2.54672   2.55891   2.56442   2.58150   2.59189
 Alpha virt. eigenvalues --    2.60869   2.60905   2.61555   2.62019   2.62650
 Alpha virt. eigenvalues --    2.63232   2.63726   2.64860   2.65259   2.65815
 Alpha virt. eigenvalues --    2.65979   2.68067   2.68833   2.70022   2.70291
 Alpha virt. eigenvalues --    2.70649   2.73139   2.77158   2.77486   2.77639
 Alpha virt. eigenvalues --    2.78314   2.78794   2.79224   2.79576   2.79881
 Alpha virt. eigenvalues --    2.80480   2.81018   2.81368   2.81662   2.83347
 Alpha virt. eigenvalues --    2.84056   2.84520   2.84997   2.85931   2.86798
 Alpha virt. eigenvalues --    2.89567   2.91639   2.92858   2.94301   2.95156
 Alpha virt. eigenvalues --    2.95803   2.96559   2.99285   2.99753   3.00999
 Alpha virt. eigenvalues --    3.03316   3.06322   3.07103   3.08927   3.13052
 Alpha virt. eigenvalues --    3.13353   3.14797   3.23003   3.26237   3.31505
 Alpha virt. eigenvalues --    3.45615  11.61977
          Condensed to atoms (all electrons):
 Mulliken charges:
               1
     1  C    0.332257
     2  C    0.082826
     3  C   -0.165287
     4  C   -0.141382
     5  C   -0.164418
     6  C    0.331002
     7  C    0.065380
     8  C   -0.177781
     9  C   -0.135732
    10  C   -0.175067
    11  H    0.166373
    12  H    0.178465
    13  H    0.169038
    14  H    0.222826
    15  H    0.179386
    16  H    0.169843
    17  N   -0.467853
    18  N   -0.519767
    19  Ir  -0.247525
    20  O   -0.505281
    21  O   -0.505634
    22  O   -0.502008
    23  B    0.482620
    24  B    0.538542
    25  B    0.498641
    26  O   -0.537411
    27  O   -0.493635
    28  C    0.292533
    29  C    0.303535
    30  C    0.285166
    31  C    0.298329
    32  C    0.298614
    33  C    0.297968
    34  O   -0.506768
    35  C   -0.508400
    36  H    0.154244
    37  H    0.168130
    38  H    0.157777
    39  C   -0.508153
    40  H    0.174462
    41  H    0.150551
    42  H    0.169111
    43  C   -0.507069
    44  H    0.148024
    45  H    0.161211
    46  H    0.186315
    47  C   -0.508120
    48  H    0.166727
    49  H    0.147411
    50  H    0.174802
    51  C   -0.512821
    52  H    0.157791
    53  H    0.150499
    54  H    0.175585
    55  C   -0.510471
    56  H    0.148718
    57  H    0.169624
    58  H    0.172004
    59  C   -0.516808
    60  H    0.152045
    61  H    0.172566
    62  H    0.164732
    63  C   -0.503714
    64  H    0.147199
    65  H    0.160423
    66  H    0.179292
    67  C   -0.507435
    68  H    0.153562
    69  H    0.161314
    70  H    0.166358
    71  C   -0.506960
    72  H    0.151689
    73  H    0.176151
    74  H    0.166421
    75  C   -0.507523
    76  H    0.146687
    77  H    0.171553
    78  H    0.165283
    79  C   -0.507644
    80  H    0.173061
    81  H    0.138387
    82  H    0.188889
    83  H    0.158664
    84  C    0.587069
    85  O   -0.532861
    86  C   -0.409011
    87  H    0.170279
    88  H    0.144802
    89  C   -0.340035
    90  H    0.134007
    91  H    0.187953
    92  N   -0.366323
    93  C   -0.347925
    94  H    0.164711
    95  H    0.197669
    96  H    0.161731
    97  C   -0.258735
    98  H    0.142320
    99  H    0.161417
   100  C   -0.275232
   101  H    0.138476
   102  H    0.124730
   103  C   -0.278744
   104  H    0.138485
   105  H    0.151343
   106  C   -0.497473
   107  H    0.163400
   108  H    0.160160
   109  H    0.155629
   110  H    0.178216
   111  H    0.174009
 Sum of Mulliken charges =  -0.00000
 Mulliken charges with hydrogens summed into heavy atoms:
               1
     1  C    0.332257
     2  C    0.249199
     3  C    0.008721
     4  C    0.037083
     5  C    0.004619
     6  C    0.331002
     7  C    0.288206
     8  C    0.000435
     9  C    0.043654
    10  C   -0.005224
    17  N   -0.467853
    18  N   -0.519767
    19  Ir  -0.088862
    20  O   -0.505281
    21  O   -0.505634
    22  O   -0.502008
    23  B    0.482620
    24  B    0.538542
    25  B    0.498641
    26  O   -0.537411
    27  O   -0.493635
    28  C    0.292533
    29  C    0.303535
    30  C    0.285166
    31  C    0.298329
    32  C    0.298614
    33  C    0.297968
    34  O   -0.506768
    35  C   -0.028249
    39  C   -0.014029
    43  C   -0.011520
    47  C   -0.019180
    51  C   -0.028947
    55  C   -0.020124
    59  C   -0.027466
    63  C   -0.016800
    67  C   -0.026201
    71  C   -0.012700
    75  C   -0.023999
    79  C   -0.007307
    84  C    0.587069
    85  O   -0.532861
    86  C   -0.093930
    89  C   -0.018075
    92  N   -0.366323
    93  C    0.176185
    97  C    0.045003
   100  C   -0.012025
   103  C    0.011083
   106  C   -0.018285
 APT charges:
               1
     1  C    0.211550
     2  C    0.098627
     3  C   -0.086007
     4  C    0.114652
     5  C   -0.161289
     6  C    0.188374
     7  C    0.022662
     8  C   -0.067823
     9  C    0.118696
    10  C   -0.168242
    11  H    0.046819
    12  H    0.031597
    13  H    0.040933
    14  H    0.128459
    15  H    0.026600
    16  H    0.041597
    17  N   -0.215968
    18  N   -0.059722
    19  Ir  -0.765559
    20  O   -0.938649
    21  O   -0.921106
    22  O   -0.955846
    23  B    1.258304
    24  B    1.223072
    25  B    1.308662
    26  O   -1.021645
    27  O   -0.963524
    28  C    0.497137
    29  C    0.505281
    30  C    0.496490
    31  C    0.501038
    32  C    0.484062
    33  C    0.502345
    34  O   -1.011435
    35  C   -0.016349
    36  H   -0.013490
    37  H    0.002252
    38  H   -0.001306
    39  C   -0.025651
    40  H    0.000744
    41  H   -0.025659
    42  H   -0.000021
    43  C   -0.020397
    44  H   -0.023232
    45  H   -0.021910
    46  H    0.010405
    47  C   -0.002989
    48  H   -0.001482
    49  H   -0.018893
    50  H    0.003178
    51  C   -0.047132
    52  H   -0.002388
    53  H   -0.021539
    54  H    0.029424
    55  C   -0.002912
    56  H   -0.016827
    57  H   -0.001776
    58  H    0.001890
    59  C   -0.012406
    60  H   -0.019435
    61  H    0.004955
    62  H   -0.000171
    63  C   -0.033630
    64  H   -0.028819
    65  H    0.000354
    66  H    0.018191
    67  C   -0.005916
    68  H   -0.020793
    69  H   -0.000912
    70  H    0.001758
    71  C   -0.039065
    72  H   -0.023467
    73  H    0.011845
    74  H    0.001098
    75  C   -0.005846
    76  H   -0.019416
    77  H   -0.000495
    78  H    0.000052
    79  C   -0.044618
    80  H    0.003450
    81  H   -0.029657
    82  H    0.038689
    83  H   -0.006816
    84  C    0.914197
    85  O   -0.705040
    86  C   -0.012706
    87  H   -0.027944
    88  H   -0.024073
    89  C    0.355149
    90  H   -0.088937
    91  H   -0.025984
    92  N   -0.829818
    93  C    0.279360
    94  H   -0.022188
    95  H    0.021047
    96  H   -0.039841
    97  C    0.095020
    98  H   -0.018121
    99  H   -0.027822
   100  C    0.108321
   101  H   -0.054573
   102  H   -0.052809
   103  C    0.119638
   104  H   -0.052625
   105  H   -0.047856
   106  C    0.062056
   107  H   -0.041058
   108  H   -0.020053
   109  H   -0.020231
   110  H    0.037742
   111  H    0.036139
 Sum of APT charges =  -0.00000
 APT charges with hydrogens summed into heavy atoms:
               1
     1  C    0.211550
     2  C    0.145445
     3  C   -0.049868
     4  C    0.146248
     5  C   -0.120356
     6  C    0.188374
     7  C    0.151121
     8  C   -0.030081
     9  C    0.145296
    10  C   -0.126645
    17  N   -0.215968
    18  N   -0.059722
    19  Ir  -0.772376
    20  O   -0.938649
    21  O   -0.921106
    22  O   -0.955846
    23  B    1.258304
    24  B    1.223072
    25  B    1.308662
    26  O   -1.021645
    27  O   -0.963524
    28  C    0.497137
    29  C    0.505281
    30  C    0.496490
    31  C    0.501038
    32  C    0.484062
    33  C    0.502345
    34  O   -1.011435
    35  C   -0.028892
    39  C   -0.050587
    43  C   -0.055135
    47  C   -0.020185
    51  C   -0.041635
    55  C   -0.019625
    59  C   -0.027058
    63  C   -0.043905
    67  C   -0.025863
    71  C   -0.049589
    75  C   -0.025705
    79  C   -0.032137
    84  C    0.914197
    85  O   -0.705040
    86  C   -0.064723
    89  C    0.240228
    92  N   -0.829818
    93  C    0.238378
    97  C    0.049077
   100  C    0.000940
   103  C    0.019157
   106  C   -0.019287
 Electronic spatial extent (au):  <R**2>=          30373.3488
 Charge=              0.0000 electrons
 Dipole moment (field-independent basis, Debye):
    X=              0.8040    Y=              1.3509    Z=              2.7848  Tot=              3.1979
 Quadrupole moment (field-independent basis, Debye-Ang):
   XX=           -299.7491   YY=           -305.0523   ZZ=           -294.8486
   XY=             15.4619   XZ=             -0.3535   YZ=             -6.7595
 Traceless Quadrupole moment (field-independent basis, Debye-Ang):
   XX=              0.1342   YY=             -5.1690   ZZ=              5.0347
   XY=             15.4619   XZ=             -0.3535   YZ=             -6.7595
 Octapole moment (field-independent basis, Debye-Ang**2):
  XXX=            -68.5815  YYY=             12.2652  ZZZ=             60.4816  XYY=            -54.9995
  XXY=             22.7423  XXZ=             20.9302  XZZ=             20.2067  YZZ=            -63.7133
  YYZ=            -13.8382  XYZ=              6.8334
 Hexadecapole moment (field-independent basis, Debye-Ang**3):
 XXXX=         -23294.9617 YYYY=          -9963.8167 ZZZZ=          -6998.3102 XXXY=             73.0536
 XXXZ=             71.1980 YYYX=            112.0282 YYYZ=           -110.8276 ZZZX=            175.6801
 ZZZY=           -223.7689 XXYY=          -5581.6194 XXZZ=          -4945.3373 YYZZ=          -2764.5740
 XXYZ=            167.3087 YYXZ=             -1.7528 ZZXY=              1.3550
 N-N= 8.110830219913D+03 E-N=-2.149920367684D+04  KE= 2.191848003817D+03
  Exact polarizability:     571.926      29.405     459.757      16.451     -33.538     466.600
 Approx polarizability:     753.588      57.552     673.509      32.915     -71.477     729.968
   1 Symmetry operations used in ECPInt.
 ECPInt:  NShTT=   53301 NPrTT=  320676 LenC2=   39719 LenP2D=  122412.
 LDataN:  DoStor=T MaxTD1= 8 Len=  415
 Calling FoFJK, ICntrl=    100127 FMM=F ISym2X=0 I1Cent= 0 IOpClX= 0 NMat=1 NMatS=1 NMatT=0.
 Defaulting to unpruned grid for atomic number  77.
 Defaulting to unpruned grid for atomic number  77.
 Defaulting to unpruned grid for atomic number  77.
 Defaulting to unpruned grid for atomic number  77.
 Defaulting to unpruned grid for atomic number  77.
 Defaulting to unpruned grid for atomic number  77.
 Defaulting to unpruned grid for atomic number  77.
 Defaulting to unpruned grid for atomic number  77.
 Defaulting to unpruned grid for atomic number  77.
 Defaulting to unpruned grid for atomic number  77.
 Defaulting to unpruned grid for atomic number  77.
 Defaulting to unpruned grid for atomic number  77.
 Defaulting to unpruned grid for atomic number  77.
 Defaulting to unpruned grid for atomic number  77.
 Defaulting to unpruned grid for atomic number  77.
 Defaulting to unpruned grid for atomic number  77.
 Full mass-weighted force constant matrix:
 Low frequencies ---  -12.8928   -4.9795   -0.0005    0.0004    0.0010    4.2912
 Low frequencies ---    7.3892   14.1702   15.7499
 ******    1 imaginary frequencies (negative Signs) ****** 
 Diagonal vibrational polarizability:
      137.6023426      88.8861821      75.1076839
 Harmonic frequencies (cm**-1), IR intensities (KM/Mole), Raman scattering
 activities (A**4/AMU), depolarization ratios for plane and unpolarized
 incident light, reduced masses (AMU), force constants (mDyne/A),
 and normal coordinates:
                      1                      2                      3
                      A                      A                      A
 Frequencies --    -12.3757                14.0951                15.6760
 Red. masses --      4.5820                 4.4735                 4.1303
 Frc consts  --      0.0004                 0.0005                 0.0006
 IR Inten    --      0.1693                 0.2472                 0.0430
  Atom AN      X      Y      Z        X      Y      Z        X      Y      Z
     1   6     0.02   0.02  -0.03     0.02   0.04  -0.05     0.01  -0.02  -0.03
     2   6    -0.00  -0.01  -0.06    -0.01   0.04  -0.06     0.01  -0.03  -0.03
     3   6     0.00   0.01  -0.08    -0.01   0.05  -0.08     0.00  -0.01  -0.03
     4   6     0.02   0.03  -0.07     0.01   0.06  -0.08     0.00  -0.01  -0.03
     5   6     0.03   0.04  -0.05     0.02   0.05  -0.07     0.01  -0.01  -0.02
     6   6     0.03   0.03  -0.01     0.04   0.03  -0.05     0.01  -0.02  -0.02
     7   6     0.01   0.05   0.04     0.05   0.01  -0.03     0.01  -0.01  -0.01
     8   6     0.02   0.06   0.05     0.07   0.00  -0.03     0.01  -0.02  -0.02
     9   6     0.04   0.06   0.02     0.08   0.01  -0.04     0.02  -0.03  -0.02
    10   6     0.04   0.04  -0.01     0.06   0.02  -0.05     0.02  -0.03  -0.03
    11   1    -0.01  -0.02  -0.06    -0.02   0.03  -0.06     0.01  -0.04  -0.04
    12   1     0.02   0.04  -0.09     0.01   0.07  -0.09    -0.00   0.00  -0.02
    13   1     0.03   0.06  -0.05     0.03   0.06  -0.06     0.00   0.00  -0.02
    14   1    -0.01   0.05   0.06     0.04  -0.00  -0.02    -0.00  -0.01  -0.01
    15   1     0.06   0.06   0.02     0.10   0.01  -0.05     0.03  -0.03  -0.03
    16   1     0.06   0.03  -0.03     0.07   0.03  -0.06     0.03  -0.03  -0.04
    17   7     0.01  -0.00  -0.04     0.00   0.03  -0.05     0.01  -0.03  -0.03
    18   7     0.01   0.04   0.02     0.03   0.02  -0.03     0.01  -0.02  -0.02
    19  77    -0.01   0.01  -0.00    -0.00   0.01  -0.03     0.00  -0.02  -0.02
    20   8     0.00   0.01   0.09    -0.02   0.02   0.01     0.02  -0.02   0.01
    21   8    -0.06  -0.06  -0.04     0.03   0.03  -0.00     0.04   0.03  -0.01
    22   8    -0.00  -0.05   0.01    -0.02  -0.01  -0.01    -0.02  -0.02  -0.00
    23   5    -0.03  -0.02  -0.04     0.00   0.01  -0.01     0.02   0.01  -0.01
    24   5     0.01   0.02   0.05    -0.02   0.02  -0.00     0.02  -0.01  -0.00
    25   5    -0.00  -0.02   0.01    -0.01   0.00  -0.01    -0.02  -0.01  -0.00
    26   8     0.01  -0.01   0.03     0.01  -0.00   0.00    -0.03   0.01   0.01
    27   8     0.03   0.05   0.04    -0.03   0.02   0.01     0.04   0.01  -0.01
    28   6     0.06   0.05   0.08    -0.04   0.03   0.03     0.05   0.00   0.01
    29   6     0.03   0.02   0.10    -0.04   0.02   0.03     0.04  -0.01   0.02
    30   6     0.01  -0.06   0.03    -0.02  -0.02   0.01    -0.03  -0.01   0.01
    31   6     0.01  -0.03   0.05     0.01  -0.02   0.01    -0.04   0.00   0.02
    32   6    -0.07  -0.05  -0.08     0.03   0.01   0.02     0.04   0.04   0.01
    33   6    -0.02   0.01  -0.08    -0.00  -0.03   0.03     0.02   0.02   0.01
    34   8    -0.01   0.02  -0.07    -0.01  -0.02   0.01     0.01   0.01   0.00
    35   6     0.05   0.01   0.15    -0.05   0.04   0.04     0.05  -0.02   0.04
    36   1     0.07   0.02   0.15    -0.07   0.05   0.06     0.06  -0.02   0.05
    37   1     0.02  -0.01   0.16    -0.05   0.04   0.04     0.04  -0.03   0.05
    38   1     0.06   0.01   0.15    -0.05   0.06   0.03     0.05  -0.02   0.04
    39   6     0.01   0.01   0.09    -0.05  -0.01   0.05     0.04  -0.02   0.02
    40   1    -0.01  -0.01   0.11    -0.04  -0.02   0.05     0.03  -0.03   0.03
    41   1     0.03   0.02   0.10    -0.07  -0.01   0.07     0.05  -0.01   0.03
    42   1    -0.00   0.02   0.06    -0.04  -0.04   0.05     0.03  -0.02   0.01
    43   6     0.08   0.06   0.09    -0.04   0.06   0.02     0.06   0.01   0.02
    44   1     0.10   0.06   0.12    -0.05   0.07   0.04     0.08   0.01   0.03
    45   1     0.07   0.05   0.10    -0.04   0.07   0.01     0.05  -0.00   0.02
    46   1     0.10   0.08   0.07    -0.04   0.07   0.02     0.07   0.02   0.01
    47   6     0.07   0.06   0.06    -0.05   0.03   0.05     0.06   0.02   0.01
    48   1     0.05   0.06   0.05    -0.05   0.01   0.06     0.06   0.01   0.00
    49   1     0.09   0.06   0.09    -0.06   0.04   0.07     0.08   0.02   0.02
    50   1     0.09   0.08   0.04    -0.05   0.04   0.05     0.07   0.03  -0.00
    51   6    -0.10  -0.05  -0.14     0.07   0.01   0.06     0.04   0.05   0.04
    52   1    -0.13  -0.09  -0.13     0.09   0.04   0.06     0.05   0.07   0.04
    53   1    -0.11  -0.05  -0.17     0.08  -0.01   0.09     0.04   0.06   0.06
    54   1    -0.08  -0.03  -0.15     0.07  -0.01   0.07     0.03   0.03   0.05
    55   6    -0.08  -0.08  -0.06     0.04   0.03   0.01     0.06   0.07   0.00
    56   1    -0.09  -0.07  -0.08     0.04   0.01   0.03     0.06   0.07   0.01
    57   1    -0.11  -0.12  -0.06     0.06   0.05   0.01     0.07   0.08   0.00
    58   1    -0.07  -0.08  -0.02     0.02   0.03  -0.02     0.06   0.06  -0.02
    59   6    -0.03   0.05  -0.13     0.01  -0.08   0.06     0.02   0.01   0.04
    60   1    -0.04   0.06  -0.14     0.02  -0.09   0.07     0.03   0.01   0.04
    61   1     0.01   0.08  -0.13    -0.02  -0.10   0.06     0.00  -0.01   0.04
    62   1    -0.06   0.05  -0.15     0.04  -0.08   0.08     0.03   0.01   0.05
    63   6     0.01   0.02  -0.03    -0.05  -0.04  -0.00     0.01   0.02  -0.01
    64   1     0.00   0.01  -0.04    -0.05  -0.05   0.01     0.02   0.02   0.00
    65   1     0.01  -0.01   0.02    -0.06  -0.00  -0.03     0.01   0.03  -0.04
    66   1     0.06   0.06  -0.03    -0.09  -0.06  -0.00    -0.02   0.00  -0.01
    67   6     0.01  -0.03   0.06     0.02  -0.04   0.03    -0.04   0.02   0.03
    68   1     0.01  -0.03   0.07     0.03  -0.06   0.03    -0.05   0.01   0.04
    69   1     0.02  -0.02   0.07     0.04  -0.03   0.03    -0.05   0.04   0.04
    70   1     0.02  -0.02   0.06     0.01  -0.05   0.02    -0.04   0.03   0.01
    71   6     0.01  -0.04   0.08     0.03  -0.00   0.01    -0.05  -0.01   0.04
    72   1     0.01  -0.05   0.09     0.04  -0.02   0.02    -0.06  -0.01   0.05
    73   1     0.01  -0.04   0.07     0.03   0.01  -0.00    -0.05  -0.02   0.04
    74   1     0.01  -0.02   0.09     0.05   0.00   0.01    -0.06   0.01   0.05
    75   6     0.02  -0.09   0.04    -0.02  -0.03   0.01    -0.05  -0.03   0.02
    76   1     0.03  -0.10   0.06    -0.01  -0.04   0.02    -0.06  -0.02   0.03
    77   1     0.02  -0.11   0.03    -0.04  -0.03   0.01    -0.05  -0.04   0.01
    78   1     0.03  -0.08   0.06    -0.01  -0.01  -0.00    -0.06  -0.04   0.02
    79   6     0.00  -0.08  -0.00    -0.03  -0.04   0.02    -0.02   0.00   0.01
    80   1    -0.00  -0.10  -0.02    -0.05  -0.04   0.02    -0.02  -0.01   0.00
    81   1     0.01  -0.09   0.01    -0.02  -0.05   0.03    -0.03   0.01   0.02
    82   1    -0.01  -0.05  -0.02    -0.03  -0.04   0.02    -0.01   0.01   0.00
    83   1    -0.03  -0.01  -0.01    -0.03   0.01  -0.03    -0.01  -0.03  -0.02
    84   6    -0.01  -0.02  -0.01    -0.02  -0.02   0.01    -0.02  -0.04  -0.02
    85   8    -0.01  -0.01  -0.01    -0.05  -0.02   0.01    -0.03  -0.04  -0.02
    86   6    -0.02  -0.03  -0.02     0.01  -0.04   0.04    -0.02  -0.03  -0.01
    87   1    -0.02  -0.05  -0.01     0.02  -0.04   0.05     0.00  -0.03  -0.00
    88   1    -0.02  -0.04  -0.04     0.04  -0.03   0.04    -0.03  -0.04  -0.02
    89   6    -0.02  -0.01   0.01    -0.02   0.01  -0.05    -0.02  -0.03  -0.03
    90   1    -0.02  -0.02   0.02    -0.01   0.05  -0.08    -0.03  -0.02  -0.03
    91   1    -0.01   0.00   0.02    -0.05  -0.01  -0.06    -0.03  -0.04  -0.03
    92   7    -0.02  -0.02  -0.00     0.00   0.01  -0.02    -0.02  -0.04  -0.02
    93   6    -0.03  -0.04  -0.01     0.04   0.02  -0.01    -0.01  -0.04  -0.02
    94   1    -0.03  -0.04  -0.01     0.05   0.02   0.01    -0.01  -0.05  -0.02
    95   1    -0.03  -0.06  -0.00     0.05   0.03  -0.04    -0.01  -0.04  -0.03
    96   1    -0.04  -0.04  -0.03     0.04   0.02  -0.00    -0.01  -0.04  -0.03
    97   6    -0.01  -0.02  -0.03    -0.02  -0.06   0.08    -0.04   0.00   0.01
    98   1    -0.01  -0.00  -0.03    -0.03  -0.04   0.06    -0.08  -0.04   0.02
    99   1    -0.01  -0.01  -0.01    -0.06  -0.06   0.10     0.01   0.01  -0.01
   100   6    -0.02  -0.02  -0.04     0.02  -0.10   0.11    -0.06   0.08   0.05
   101   1    -0.01  -0.04  -0.03     0.04  -0.12   0.12     0.01   0.10   0.06
   102   1    -0.02  -0.03  -0.06     0.06  -0.10   0.08    -0.12   0.07   0.04
   103   6    -0.02   0.00  -0.04    -0.01  -0.12   0.15    -0.10   0.17   0.10
   104   1    -0.02   0.02  -0.05    -0.03  -0.09   0.13    -0.17   0.14   0.09
   105   1    -0.01   0.01  -0.01    -0.06  -0.12   0.18    -0.03   0.18   0.11
   106   6    -0.02  -0.01  -0.05     0.03  -0.17   0.18    -0.12   0.26   0.16
   107   1    -0.02   0.01  -0.04     0.01  -0.19   0.21    -0.15   0.32   0.19
   108   1    -0.01  -0.02  -0.04     0.05  -0.21   0.20    -0.05   0.29   0.17
   109   1    -0.02  -0.01  -0.07     0.08  -0.17   0.14    -0.19   0.24   0.15
   110   1     0.02   0.07   0.07     0.08  -0.01  -0.02     0.01  -0.02  -0.01
   111   1    -0.01   0.00  -0.09    -0.02   0.06  -0.08     0.00  -0.01  -0.03
                      4                      5                      6
                      A                      A                      A
 Frequencies --     18.2261                33.3212                37.0515
 Red. masses --      3.6647                 4.2934                 4.5188
 Frc consts  --      0.0007                 0.0028                 0.0037
 IR Inten    --      0.4134                 0.4828                 0.2460
  Atom AN      X      Y      Z        X      Y      Z        X      Y      Z
     1   6    -0.02  -0.01   0.02    -0.00  -0.03   0.00    -0.05   0.07   0.02
     2   6     0.00  -0.02   0.02    -0.02   0.03   0.04    -0.03   0.01  -0.01
     3   6    -0.00  -0.02   0.03    -0.03   0.04   0.05    -0.07   0.10   0.03
     4   6    -0.01  -0.02   0.03    -0.02   0.01   0.04    -0.11   0.17   0.06
     5   6    -0.02  -0.01   0.02    -0.01  -0.02   0.02    -0.10   0.16   0.06
     6   6    -0.03   0.00   0.01     0.02  -0.07  -0.03    -0.03   0.04   0.01
     7   6    -0.03   0.00  -0.00     0.01  -0.05  -0.04     0.03  -0.04  -0.03
     8   6    -0.05   0.01   0.00     0.05  -0.12  -0.08     0.03  -0.03  -0.02
     9   6    -0.06   0.02   0.02     0.08  -0.18  -0.10    -0.00   0.02   0.00
    10   6    -0.05   0.01   0.02     0.06  -0.15  -0.08    -0.03   0.06   0.02
    11   1     0.01  -0.02   0.01    -0.02   0.06   0.05     0.00  -0.04  -0.04
    12   1    -0.02  -0.02   0.04    -0.03   0.01   0.06    -0.15   0.24   0.09
    13   1    -0.03  -0.01   0.03    -0.01  -0.04   0.01    -0.13   0.22   0.09
    14   1    -0.02   0.00  -0.01    -0.02  -0.01  -0.02     0.05  -0.07  -0.04
    15   1    -0.07   0.02   0.02     0.12  -0.25  -0.14    -0.00   0.04   0.01
    16   1    -0.06   0.01   0.03     0.09  -0.20  -0.10    -0.05   0.09   0.03
    17   7    -0.01  -0.01   0.01    -0.01   0.00   0.02    -0.02   0.00  -0.01
    18   7    -0.02  -0.00   0.00    -0.00  -0.03  -0.01     0.00  -0.01  -0.01
    19  77    -0.00  -0.01  -0.00    -0.01   0.01   0.00     0.00  -0.03  -0.03
    20   8     0.01  -0.02   0.03    -0.02   0.01   0.00    -0.03  -0.02   0.06
    21   8     0.01   0.11  -0.02    -0.01   0.01   0.00     0.04  -0.03  -0.00
    22   8     0.02  -0.03  -0.01     0.03  -0.07   0.01    -0.03  -0.01  -0.02
[...]
 0.00002939,-0.00001527,0.00003482,0.00007015,0.00001164,-0.00000493,-0
 .00007011,0.00000199,-0.00004700,-0.00137189,-0.00024080,-0.00170787,0
 .02060725,0.01716002,-0.00133073,0.04678206,0.06154788,-0.07574982,-0.
 01218144,-0.01384568,0.00956138,-0.00473880,0.00126189,-0.00042299,-0.
 00000592,-0.00000255,0.00000247,0.00000463,-0.00000053,-0.00000259,0.0
 0001657,0.00003689,0.00004472,0.00079792,-0.00150131,-0.00005010,0.001
 62766,-0.00105345,-0.00008285,-0.00073652,-0.00063256,0.00043434,-0.00
 004719,0.00003405,-0.00006139,-0.00208373,0.00598498,-0.00342758,0.000
 28617,-0.00011703,0.00076168,0.00001584,0.00005506,0.00001329,-0.00012
 383,-0.00002697,0.00005957,-0.00011957,-0.00012394,-0.00001830,0.00023
 366,-0.00010498,0.00001198,0.00005782,-0.00016288,-0.00013087,0.000271
 39,0.00028069,0.00005102,-0.00020244,-0.00025804,0.00001079,-0.0000447
 7,0.00009043,-0.00000184,-0.00001666,-0.00003052,0.00001271,0.00000237
 ,-0.00002099,0.00000722,0.00005328,0.00004668,-0.00002895,-0.00000508,
 0.00008452,0.00002582,0.00007679,0.00006497,-0.00003334,0.00001654,-0.
 00000354,-0.00002184,-0.00009290,-0.00001446,-0.00000089,-0.00000123,0
 .00000217,0.00000073,0.00000084,0.00000175,-0.00000074,0.00000067,0.00
 000129,0.00000137,-0.00000125,-0.00000112,-0.00000070,0.00000092,0.000
 00545,-0.00000266,-0.00000039,-0.00000032,0.00000060,-0.00000151,0.000
 00287,0.00000095,0.00000104,-0.00000060,-0.00000043,0.00000989,0.00000
 126,-0.00000039,-0.00000055,0.00000497,-0.00000149,-0.00000797,-0.0000
 0015,0.00000057,0.00000029,-0.00000205,0.00000151,0.00000383,0.0000043
 5,-0.00000028,-0.00000036,0.00000067,0.00000134,-0.00000159,0.00000312
 ,-0.00000108,-0.00000027,-0.00000075,-0.00000146,-0.00002390,-0.000038
 52,0.00009652,0.00000251,0.00003560,0.00003258,0.00000516,-0.00001056,
 -0.00000361,-0.00002389,0.00002727,-0.00009802,-0.00001821,-0.00003194
 ,0.00002445,-0.00000278,0.00000369,0.00000409,-0.00000204,0.00000208,-
 0.00000330,0.00000125,-0.00001174,-0.00001126,-0.00000271,0.00001308,0
 .00000306,-0.00000263,-0.00000163,-0.00000088,-0.00000067,-0.00000275,
 0.00000029,-0.00000413,-0.00000602,-0.00000420,-0.00000622,0.00000022,
 0.00001039,-0.00000028,0.00000137,0.00000082,-0.00000246,-0.00000382,-
 0.00000268,0.00000350,-0.00000254,0.00000092,0.00000166,0.00003388,-0.
 00005064,-0.00000404,-0.00000990,0.00002168,-0.00002305,-0.00003338,0.
 00001719,0.00000473,-0.00000435,0.00000228,0.00000445,0.00003938,-0.00
 007778,0.00000673,-0.00001514,0.00001968,-0.00000216,0.00000036,0.0000
 1261,-0.00000243,-0.00003844,0.00002111,-0.00000916,-0.00001323,0.0000
 0526,-0.00000536,-0.00000294,-0.00000835,0.00000318,-0.00000511,0.0000
 0821,0.00000631,0.00000381,-0.00000576,-0.00001124,-0.00001574,0.00001
 145,0.00000345,-0.00000635,0.00000860,-0.00000774,0.00000003,-0.000005
 48,0.00000525,0.00000769,-0.00000015,-0.00002380,0.00011750,-0.0002842
 8,-0.00003200,0.00001062,-0.00003144,0.00002234,-0.00002036,0.00002083
 ,0.00000066,0.00000335,0.00000164,0.00000135,0.00000098,-0.00000165,0.
 00000032,-0.00000178,-0.00000033,0.00001649,-0.00001032,0.00001554,-0.
 00000007,-0.00000338,-0.00003226,0.00000728,0.00003439,0.00000396,0.00
 001974,-0.00002259,-0.00000932,0.00000973,0.00002225,-0.00000751,0.000
 00626,-0.00000704,0.00000019,-0.00000260,0.00000761,0.00000371,-0.0000
 0677,-0.00001729,-0.00000091,-0.00000058,0.00000192,-0.00000269,-0.000
 00016,0.00000104,-0.00000031,0.00000155,-0.00000134,0.00000035,0.00000
 059,0.00000008,0.00000184,-0.00000009,0.00000006,-0.00000031,-0.000000
 14,-0.00000105,0.00000025,0.00000009,0.00000090,-0.00000080,0.00000007
 ,0.00000027,-0.00000006,0.00000045,-0.00000074,0.00000019,0.00000034,0
 .00000019,0.00000046,-0.00000001,0.00000015,-0.00000008,-0.00000006,-0
 .00000003,-0.00000014,-0.00000002,-0.00000048,0.00000019,-0.04940832,-
 0.06810961,0.07248411,-0.00046779,0.00072763,-0.00156471,-0.01055601,-
 0.01442793,0.01761413,-0.16556055,-0.11290735,0.08614813,0.00822996,0.
 00565542,-0.00474189,0.00200696,-0.00134598,-0.00291265,-0.00024053,0.
 00045279,0.00037328,0.00001619,0.00001329,0.00001316,-0.00000884,0.000
 00433,0.00000110,0.00001098,0.00000906,0.00004543,-0.00002730,-0.00005
 914,-0.00001661,0.00004844,0.00143006,0.00059677,-0.00030437,0.0012823
 1,0.00113519,0.00032602,0.00023677,-0.00036361,-0.00000035,-0.00000014
 ,-0.00000554,-0.00000431,-0.00000008,0.00000667,0.00002657,-0.00002910
 ,-0.00001086,-0.00344334,-0.00428574,-0.00407949,-0.00005714,-0.000027
 21,-0.00010066,0.00047433,0.00023543,0.00068136,0.00010772,0.00048393,
 -0.00006043,-0.00005017,0.00002982,0.00005793,-0.00011033,-0.00008895,
 -0.00012812,0.00009239,-0.00016691,-0.00016273,0.00006649,-0.00047088,
 0.00009916,0.00004237,0.00011807,0.00006129,-0.00011307,-0.00012145,-0
 .00006010,0.00003768,0.00023318,-0.00006675,-0.00008024,-0.00009016,-0
 .00002123,-0.00012890,-0.00029048,0.00012059,0.00004926,0.00001143,0.0
 0000649,0.00001244,0.00002806,0.00003550,0.00003100,-0.00000597,-0.000
 00731,0.00003873,-0.00002209,-0.00003594,-0.00014412,0.00007555,0.0000
 3781,0.00000609,0.00002923,0.00009527,0.00009512,-0.00002593,-0.000003
 37,-0.00005207,0.00008922,0.00009887,-0.00000508,-0.00005516,-0.000185
 07,0.00003756,0.00007682,-0.00002959,-0.00000957,-0.00000604,0.0000168
 5,-0.00001328,0.00001424,0.00001033,0.00003469,-0.00000629,-0.00002131
 ,0.00001263,0.00002863,0.00000352,-0.00000373,0.00001987,-0.00002296,-
 0.00001667,-0.00003157,-0.00000369,0.00001926,-0.00000263,0.00001070,0
 .00000884,0.00000992,-0.00000378,0.00000292,-0.00000554,-0.00000547,-0
 .00000548,0.00001398,-0.00000724,0.00000384,0.00000067,0.00000822,-0.0
 0000611,0.00000031,-0.00000162,0.00000242,-0.00000026,-0.00000220,-0.0
 0000381,-0.00000055,0.00000178,0.00000494,0.00000292,-0.00000083,-0.00
 000351,-0.00000464,0.00000195,-0.00000254,0.00000147,0.00000204,0.0000
 0069,0.00000018,0.00000037,0.00000062,0.00000344,0.00000045,-0.0000046
 6,0.00000765,0.00000503,-0.00000462,-0.00000054,0.00000183,-0.00000082
 ,-0.00000153,-0.00000286,0.00000377,0.00000341,-0.00000079,-0.00001590
 ,0.00000509,0.00000404,-0.00000102,0.00000823,0.00000129,0.00000441,-0
 .00000369,0.00000710,-0.00000377,-0.00000253,-0.00000301,-0.00000041,-
 0.00000771,-0.00000835,-0.00000660,-0.00000359,-0.00000110,0.00000018,
 -0.00000003,0.00000230,0.00000025,0.00000181,0.00000084,-0.00000689,-0
 .00000459,-0.00000829,-0.00000040,-0.00000688,-0.00000347,0.00000010,0
 .00000303,0.00000225,0.00000055,0.00000121,0.00000133,-0.00001210,-0.0
 0000431,0.00000067,-0.00000155,-0.00000476,-0.00000570,0.00000008,0.00
 000255,-0.00000395,0.00000099,-0.00000014,0.00000243,-0.00000699,-0.00
 000683,0.00000012,0.00000089,0.00000133,-0.00000397,-0.00000714,0.0000
 0062,-0.00000167,0.00000414,-0.00000199,0.00000201,0.00000759,0.000003
 28,-0.00002997,-0.00003516,-0.00004668,0.00009251,0.00003328,-0.000028
 44,-0.00010282,0.00004304,-0.00008001,0.00000097,-0.00000279,0.0000176
 5,-0.00000874,0.00003262,-0.00009075,-0.00004076,-0.00006241,0.0000496
 7,0.00003805,0.00000878,-0.00000568,-0.00001086,0.00000363,0.00001308,
 -0.00000057,0.00003318,0.00001665,-0.00004330,0.00003219,-0.00007508,0
 .00005445,0.00000657,-0.00000231,-0.00000714,-0.00000554,0.00002113,0.
 00000328,-0.00003290,0.00002919,-0.00001969,0.00005988,-0.00012603,0.0
 0011222,0.00009560,-0.00012851,-0.00010411,-0.00001889,-0.00001838,-0.
 00004029,0.00002953,-0.00004967,-0.00004758,0.00000120,-0.00002274,-0.
 00000753,-0.00030721,0.00017115,0.00021551,-0.00003145,0.00003680,0.00
 005563,0.00003046,-0.00002623,-0.00005754,0.00000701,-0.00002093,-0.00
 001623,-0.00001065,0.00000869,-0.00001793,0.00000415,-0.00000365,0.000
 00447,0.00000906,-0.00000906,-0.00000856,-0.00001150,-0.00000988,0.000
 01493,0.00000896,-0.00001571,-0.00000301,0.16970131,0.00024036,0.00008
 734,-0.00067625,-0.00167975,-0.00293893,0.00495472,-0.11326579,-0.1383
 2340,0.09121316,-0.00618081,-0.00252275,0.00244644,-0.00139823,0.00479
 328,0.00342392,0.00055329,-0.00086656,-0.00046745,0.00003807,0.0000228
 9,-0.00002660,0.00001173,-0.00003564,0.00003133,-0.00001677,-0.0000364
 1,-0.00004342,-0.00003262,0.00002785,0.00002426,0.00111024,-0.00184743
 ,-0.00132937,0.00154546,-0.00211188,-0.00134425,-0.00035771,-0.0000178
 0,0.00011443,-0.00000142,0.00000237,0.00000559,0.00000033,-0.00001097,
 0.00000419,-0.00004114,0.00006744,0.00000915,-0.00397450,0.00522804,0.
 00174506,-0.00006679,-0.00003162,0.00009283,0.00021502,0.00004167,0.00
 005228,0.00010284,-0.00009375,-0.00004075,-0.00004745,0.00000809,0.000
 02394,-0.00005402,-0.00006643,-0.00009181,0.00010585,-0.00007002,-0.00
 005185,0.00005362,-0.00009024,0.00007833,0.00001010,0.00014673,0.00010
 164,-0.00007078,-0.00009193,-0.00005488,-0.00002230,0.00000971,-0.0000
 2501,0.00000142,-0.00001070,0.00004909,0.00005030,0.00011054,-0.000048
 82,0.00002951,0.00001288,0.00000934,0.00000982,0.00003294,0.00003213,0
 .00003414,0.00000036,-0.00000676,0.00002200,0.00000044,-0.00001527,-0.
 00007237,0.00001782,0.00000685,-0.00005251,0.00001411,-0.00003563,-0.0
 0003817,0.00000653,-0.00000011,0.00000447,-0.00004926,-0.00006513,-0.0
 0013423,0.00011281,0.00005856,-0.00001472,-0.00003080,0.00001068,0.000
 00240,-0.00000106,-0.00000938,0.00000473,-0.00000207,-0.00000649,-0.00
 000975,0.00000007,0.00000771,-0.00000612,0.00000580,-0.00001717,0.0000
 0161,0.00000139,0.00000443,-0.00000522,0.00000093,0.00000385,-0.000005
 44,-0.00000380,-0.00000251,0.00000285,0.00000099,-0.00000881,0.0000029
 9,-0.00000216,0.00000092,0.00000178,0.00000001,0.00000243,-0.00000486,
 -0.00000177,-0.00000347,-0.00000434,-0.00000259,0.00000368,0.00000079,
 0.00000085,-0.00000325,-0.00000580,-0.00000011,0.00000081,0.00000287,0
 .00000178,0.00000028,-0.00000183,0.00000047,0.00000148,-0.00000399,0.0
 0000031,0.00000061,0.00000204,0.00000015,-0.00000065,0.00000162,-0.000
 00093,-0.00000036,-0.00000108,0.00000058,-0.00000008,-0.00000217,-0.00
 000008,0.00000144,-0.00000045,0.00000099,-0.00000234,0.00000101,-0.000
 00137,0.00000054,-0.00000274,0.00000123,0.00000450,-0.00000269,0.00000
 291,0.00000207,-0.00000073,-0.00000161,-0.00000142,0.00000102,-0.00000
 005,-0.00000112,-0.00000147,-0.00000648,-0.00000515,-0.00000470,-0.000
 00281,-0.00000230,0.00000012,0.00000132,0.00000216,0.00000292,0.000000
 05,0.00000067,-0.00000498,-0.00000747,-0.00000245,-0.00000081,-0.00000
 549,-0.00000367,0.00000108,0.00000332,0.00000016,0.00000032,0.00000190
 ,0.00000131,-0.00000841,-0.00000073,-0.00000131,-0.00000106,-0.0000033
 7,-0.00000366,-0.00000063,0.00000237,-0.00000225,0.00000250,-0.0000028
 1,0.00000171,-0.00000361,-0.00000424,-0.00000120,0.00000086,0.00000159
 ,0.00000015,-0.00000469,-0.00000139,-0.00000099,0.00000428,0.00000018,
 0.00000047,-0.00001360,0.00001882,-0.00000100,-0.00066947,-0.00004729,
 0.00022919,0.00030553,0.00000268,-0.00020023,-0.00001588,-0.00017826,0
 .00008088,0.00002513,0.00013370,-0.00000730,-0.00010157,0.00000367,-0.
 00029568,-0.00009199,0.00000267,0.00009103,0.00003643,-0.00001340,-0.0
 0001749,0.00000114,-0.00000595,-0.00001272,0.00032057,-0.00006022,-0.0
 0008480,0.00000491,-0.00001382,0.00005872,0.00001051,-0.00002533,-0.00
 004143,0.00001317,0.00001393,0.00000131,-0.00002912,0.00001570,0.00002
 942,0.00003653,-0.00003927,-0.00017993,-0.00009377,-0.00019176,0.00028
 822,-0.00005342,0.00011710,0.00006733,0.00017856,-0.00071702,0.0002861
 8,-0.00008388,0.00019173,-0.00001931,0.00011836,0.00047350,-0.00031697
 ,0.00006572,0.00012393,0.00002373,0.00001729,-0.00002687,0.00003367,-0
 .00007203,0.00003033,-0.00003405,0.00000600,0.00001663,-0.00003150,-0.
 00004230,-0.00000471,-0.00001054,-0.00000325,0.00000362,0.00001682,0.0
 0002003,0.00000517,0.00000505,-0.00002311,0.00002017,0.00001643,0.1235
 6679,0.13867641,-0.00112680,-0.00016560,-0.00126521,-0.00805419,-0.009
 08604,0.01012511,0.08645277,0.09117194,-0.12721930,0.02019164,0.016133
 46,-0.00858311,-0.00349578,0.00312273,-0.00340366,0.00028805,-0.000499
 84,-0.00005810,0.00003029,0.00001951,-0.00000926,0.00004096,0.00000159
 ,0.00002142,-0.00000471,-0.00005926,0.00005013,-0.00002491,0.00007006,
 -0.00009842,0.00101845,-0.00081237,-0.00029972,0.00061199,-0.00166726,
 0.00052024,0.00097982,0.00089602,-0.00041201,-0.00000316,0.00000440,-0
 .00001267,0.00000165,-0.00000092,-0.00000522,0.00000155,-0.00000595,0.
 00008562,-0.00465190,0.00082714,0.00127411,0.00000922,0.00005868,-0.00
 002618,0.00021952,0.00001382,0.00021960,0.00005985,-0.00014665,-0.0000
 1942,0.00003662,-0.00001188,-0.00000678,0.00000526,-0.00000994,0.00000
 073,-0.00006551,-0.00002526,-0.00003828,0.00000938,0.00005209,-0.00001
 712,-0.00007468,0.00001331,-0.00003741,0.00000409,-0.00000917,0.000010
 47,0.00000467,-0.00005568,0.00000985,0.00000369,0.00001356,0.00002681,
 0.00004250,0.00007173,-0.00006016,-0.00000605,-0.00000452,-0.00000477,
 -0.00000756,-0.00000716,-0.00000563,-0.00001769,0.00000736,0.00000253,
 -0.00001032,0.00000991,0.00000200,0.00002407,-0.00000066,0.00001069,-0
 .00001604,0.00003134,0.00013469,0.00000151,-0.00001019,-0.00002306,0.0
 0004397,-0.00002722,-0.00002789,0.00010083,-0.00004869,-0.00001873,0.0
 0001361,-0.00000769,0.00001606,0.00000281,0.00000300,-0.00001210,0.000
 00334,-0.00000677,-0.00000175,-0.00000605,-0.00000079,-0.00000337,-0.0
 0001472,0.00000673,-0.00001180,-0.00000087,-0.00000156,0.00000441,0.00
 000081,-0.00000567,0.00000160,0.00000148,-0.00000306,-0.00000183,0.000
 00265,-0.00000094,-0.00000702,0.00000409,-0.00000065,-0.00000090,-0.00
 000011,-0.00000300,0.00000288,-0.00000166,0.00000014,-0.00000146,0.000
 00282,-0.00000016,-0.00000550,-0.00000237,0.00000089,0.00000680,0.0000
 0395,-0.00000088,0.00000018,-0.00000335,-0.00000026,-0.00000301,0.0000
 0143,0.00000086,-0.00000199,0.00000222,-0.00000054,-0.00000055,-0.0000
 0104,0.00000072,0.00000152,-0.00000066,-0.00000172,0.00000058,0.000001
 17,-0.00000155,0.00000110,0.00000077,0.00000015,-0.00000118,0.00000056
 ,0.,0.00000159,-0.00000111,-0.00000101,-0.00000062,0.00000140,-0.00000
 156,0.00000273,0.00000131,-0.00000050,-0.00000133,-0.00000098,0.000001
 66,-0.00000059,-0.00000038,-0.00000028,0.00000097,0.00000112,0.0000002
 9,-0.00000141,0.00000020,0.00000048,0.00000139,-0.00000083,-0.00000109
 ,0.00000005,0.00000018,-0.00000041,-0.00000054,-0.00000173,0.00000113,
 -0.00000052,0.00000189,0.00000016,0.00000153,0.00000020,-0.00000069,-0
 .00000194,-0.00000086,-0.00000200,0.00000053,-0.00000185,-0.00000051,0
 .00000144,0.00000110,0.00000045,-0.00000096,-0.00000079,-0.00000047,0.
 00000034,0.00000018,-0.00000129,-0.00000058,0.00000080,-0.00000104,0.0
 0000037,-0.00000054,-0.00000025,0.00000062,0.00000104,0.00000081,0.000
 00005,-0.00000004,0.00000009,-0.00000021,-0.00000309,-0.00000312,0.000
 01140,-0.00009522,0.00003126,-0.00000639,0.00001102,-0.00000029,0.0000
 0482,0.00003560,-0.00013130,0.00014659,-0.00000909,0.00004354,-0.00002
 566,-0.00007120,0.00013219,-0.00007897,-0.00001400,-0.00000347,-0.0000
 1143,0.00000461,0.00000243,0.00000344,-0.00000154,0.00000154,-0.000003
 56,0.00004684,-0.00002458,-0.00003584,0.00000991,-0.00005523,0.0000367
 1,0.00000062,-0.00000251,-0.00000453,0.00000126,0.00001207,-0.00000164
 ,-0.00001600,0.00002942,0.00001142,-0.00002289,0.00018196,0.00000422,-
 0.00000971,0.00012416,0.00000766,-0.00001295,-0.00000500,-0.00001416,-
 0.00003205,0.00008703,-0.00001150,0.00000873,-0.00003596,-0.00001151,0
 .00023474,-0.00013931,-0.00006608,-0.00001251,0.00002778,0.00007456,-0
 .00000925,0.00000979,-0.00005799,0.00000768,-0.00001814,-0.00002175,-0
 .00001189,-0.00000079,-0.00002325,-0.00000902,0.00000293,-0.00000015,0
 .00001058,-0.00001034,-0.00000934,-0.00000258,-0.00000608,0.00002213,-
 0.00000084,0.00001543,0.00001364,-0.09267202,-0.10010096,0.12921973\\0
 .00000006,-0.00000027,-0.00000434,-0.00000515,-0.00000490,0.00000802,0
 .00000224,-0.00000063,-0.00000029,0.00000040,-0.00000128,0.00000337,-0
 .00000175,-0.00000557,0.00000425,-0.00000320,-0.00000785,0.00000835,-0
 .00000697,-0.00000135,-0.00000831,-0.00000408,-0.00000239,-0.00000637,
 0.00000073,-0.00000344,-0.00000020,-0.00000248,0.00000018,-0.00000633,
 0.00000112,0.00000101,-0.00000047,-0.00000081,-0.00000251,0.00000187,-
 0.00000180,-0.00000200,-0.00000014,0.00000406,0.00000026,0.00000182,-0
 .00000217,-0.00000320,0.00000101,-0.00000174,-0.00000262,0.00000053,0.
 00000547,-0.00000009,0.00000288,-0.00000465,-0.00000517,0.00000015,-0.
 00000185,0.00000014,0.00000033,-0.00000109,-0.00000176,0.00000175,-0.0
 0000191,-0.00000056,-0.00000058,0.00000241,0.00000503,-0.00000634,-0.0
 0000125,0.00000101,0.00000338,0.00000277,0.00000184,0.00000034,-0.0000
 0030,0.00000024,0.00000482,-0.00000007,0.00000563,-0.00000493,0.000002
 66,0.00000175,0.00000319,0.00000173,0.00000163,-0.00000160,0.00000209,
 0.00000233,0.00000620,-0.00000216,0.00000501,-0.00000507,-0.00000122,-
 0.00000124,-0.00000375,0.00000410,-0.00000125,-0.00000209,0.00000058,-
 0.00000202,-0.00000134,-0.00000117,0.00000150,-0.00000246,0.00000022,0
 .00000360,0.00000602,0.00000114,-0.00000121,0.00000238,-0.00000019,-0.
 00000039,0.,0.00000198,-0.00000242,-0.00000085,0.00000143,-0.00000595,
 -0.00000114,0.00000141,-0.00000021,0.00000183,0.00000012,0.00000123,0.
 00000138,0.00000165,0.00000148,0.00000070,0.00000449,0.00000090,0.0000
 0224,0.00000094,0.00000091,0.00000162,-0.00000080,0.00000183,0.0000002
 9,0.00000042,0.00000065,0.00000126,0.00000211,0.00000245,0.00000337,-0
 .00000022,0.00000045,0.00000186,0.00000231,0.00000190,0.00000088,0.000
 00075,-0.00000035,-0.00000014,0.00000166,0.00000051,0.00000214,-0.0000
 0072,-0.00000009,-0.00000077,-0.00000359,-0.00000042,0.00000005,-0.000
 00011,-0.00000310,-0.00000642,0.00000383,-0.00000219,-0.00000105,-0.00
 000611,-0.00000051,0.00000070,0.00000026,-0.00000084,0.00000119,0.0000
 0155,0.00000343,-0.00000035,0.00000153,0.00000013,-0.00000905,-0.00000
 330,0.00000154,0.00000253,0.00000045,-0.00000015,0.00000255,0.00000041
 ,0.00000110,-0.00000038,-0.00000498,0.00000153,-0.00000092,0.00000111,
 -0.00000015,-0.00000006,0.00000578,0.00000329,0.00000217,-0.00000088,0
 .00000157,-0.00000145,0.00000090,-0.00000137,-0.00000879,0.00000063,0.
 00000318,-0.00000132,-0.00000070,0.00000128,-0.00000284,-0.00000129,0.
 00000457,0.00000063,-0.00000593,-0.00000044,-0.00000335,-0.00000073,0.
 00000168,-0.00000318,0.00000372,0.00000271,-0.00000335,-0.00000082,0.0
 0000170,-0.00000361,-0.00000133,0.00000289,-0.00000674,0.00000209,0.00
 000444,-0.00000176,0.00000078,0.00000190,-0.00000009,-0.00000005,0.000
 00275,-0.00000189,0.00000015,0.00000881,-0.00000111,0.00000065,0.00000
 046,0.00000059,0.00000015,0.00000108,-0.00000287,0.00000110,0.00000057
 ,-0.00000289,0.00000098,0.00000102,-0.00000192,-0.00000093,0.00000061,
 -0.00000399,-0.00000083,-0.00000397,0.00000580,0.00000411,0.00000329,-
 0.00000184,0.00000006,-0.00000077,0.00000018,-0.00000011,-0.00000154,0
 .00000219,-0.00000103,0.00000232,-0.00000755,0.00000072,0.00000118,0.0
 0000066,-0.00000021,-0.00000347,0.00000319,-0.00000239,0.00000281,-0.0
 0000597,0.00000423,-0.00000010,0.00000636,0.00000057,0.00000064,0.0000
 0058,-0.00000189,0.00000007,-0.00000134,0.00000078,0.00000177,0.000000
 75,-0.00000225,-0.00000173,0.00000673,0.00000071,-0.00000265,-0.000001
 23,-0.00000005,-0.00000143,0.00000081,-0.00000400,0.00000139,-0.000000
 11,0.00000095,-0.00000093,0.00000119,0.00000141,-0.00000309,0.00000341
 ,0.00000515,-0.00000031,0.00000033,-0.00000148,-0.00000108,0.00000485,
 0.00000014,-0.00000351,0.00000206,0.00000147,-0.00000659,0.00000774,-0
 .00000159,-0.00000140,0.00000122,-0.00000026,-0.00000055,0.00000245,0.
 00000013,-0.00000111,0.00000294,-0.00000266,-0.00000246,-0.00000166,-0
 .00000029,-0.00000260,0.00000449\\\@
 The archive entry for this job was punched.


 The most important thing in communication is to hear what isn't being said.
 -- Peter F. Drucker
 Job cpu time:       1 days 13 hours 20 minutes 19.4 seconds.
 Elapsed time:       0 days  2 hours 22 minutes 51.4 seconds.
 File lengths (MBytes):  RWF=   8594 Int=      0 D2E=      0 Chk=     49 Scr=      1
 Normal termination of Gaussian 16 at Sat Dec  7 23:47:50 2024.
