/mnt/lustre/scratch/nvme/SLURM/9664122/usccqdma.7CTBikKOvD
OMP_STACKSIZE=0m
GAUSS_PDEF=16
GAUSS_MDEF=65536MB
GAUSS_RDEF=SCF=Direct
 Entering Gaussian System, Link 0=g16.exe
 Initial command:
 /opt/cesga/2020/software/Core/g16/c1/l1.exe "/mnt/lustre/scratch/nvme/SLURM/9664122/usccqdma.7CTBikKOvD/Gau-3005213.inp" -scrdir="/mnt/lustre/scratch/nvme/SLURM/9664122/usccqdma.7CTBikKOvD/"
 Default is to use a total of  16 processors:
                               16 via shared-memory
                                1 via Linda
 Entering Link 1 = /opt/cesga/2020/software/Core/g16/c1/l1.exe PID=   3005239.
  
 Copyright (c) 1988-2019, Gaussian, Inc.  All Rights Reserved.
  
 This is part of the Gaussian(R) 16 program.  It is based on
 the Gaussian(R) 09 system (copyright 2009, Gaussian, Inc.),
 the Gaussian(R) 03 system (copyright 2003, Gaussian, Inc.),
 the Gaussian(R) 98 system (copyright 1998, Gaussian, Inc.),
 the Gaussian(R) 94 system (copyright 1995, Gaussian, Inc.),
 the Gaussian 92(TM) system (copyright 1992, Gaussian, Inc.),
 the Gaussian 90(TM) system (copyright 1990, Gaussian, Inc.),
 the Gaussian 88(TM) system (copyright 1988, Gaussian, Inc.),
 the Gaussian 86(TM) system (copyright 1986, Carnegie Mellon
 University), and the Gaussian 82(TM) system (copyright 1983,
 Carnegie Mellon University). Gaussian is a federally registered
 trademark of Gaussian, Inc.
  
 This software contains proprietary and confidential information,
 including trade secrets, belonging to Gaussian, Inc.
  
 This software is provided under written license and may be
 used, copied, transmitted, or stored only in accord with that
 written license.
  
 The following legend is applicable only to US Government
 contracts under FAR:
  
                    RESTRICTED RIGHTS LEGEND
  
 Use, reproduction and disclosure by the US Government is
 subject to restrictions as set forth in subparagraphs (a)
 and (c) of the Commercial Computer Software - Restricted
 Rights clause in FAR 52.227-19.
  
 Gaussian, Inc.
 340 Quinnipiac St., Bldg. 40, Wallingford CT 06492
  
  
 ---------------------------------------------------------------
 Warning -- This program may not be used in any manner that
 competes with the business of Gaussian, Inc. or will provide
 assistance to any competitor of Gaussian, Inc.  The licensee
 of this program is prohibited from giving any competitor of
 Gaussian, Inc. access to this program.  By using this program,
 the user acknowledges that Gaussian, Inc. is engaged in the
 business of creating and licensing software in the field of
 computational chemistry and represents and warrants to the
 licensee that it is not a competitor of Gaussian, Inc. and that
 it will not use this program in any manner prohibited above.
 ---------------------------------------------------------------
  

 Cite this work as:
 Gaussian 16, Revision C.01,
 M. J. Frisch, G. W. Trucks, H. B. Schlegel, G. E. Scuseria, 
 M. A. Robb, J. R. Cheeseman, G. Scalmani, V. Barone, 
 G. A. Petersson, H. Nakatsuji, X. Li, M. Caricato, A. V. Marenich, 
 J. Bloino, B. G. Janesko, R. Gomperts, B. Mennucci, H. P. Hratchian, 
 J. V. Ortiz, A. F. Izmaylov, J. L. Sonnenberg, D. Williams-Young, 
 F. Ding, F. Lipparini, F. Egidi, J. Goings, B. Peng, A. Petrone, 
 T. Henderson, D. Ranasinghe, V. G. Zakrzewski, J. Gao, N. Rega, 
 G. Zheng, W. Liang, M. Hada, M. Ehara, K. Toyota, R. Fukuda, 
 J. Hasegawa, M. Ishida, T. Nakajima, Y. Honda, O. Kitao, H. Nakai, 
 T. Vreven, K. Throssell, J. A. Montgomery, Jr., J. E. Peralta, 
 F. Ogliaro, M. J. Bearpark, J. J. Heyd, E. N. Brothers, K. N. Kudin, 
 V. N. Staroverov, T. A. Keith, R. Kobayashi, J. Normand, 
 K. Raghavachari, A. P. Rendell, J. C. Burant, S. S. Iyengar, 
 J. Tomasi, M. Cossi, J. M. Millam, M. Klene, C. Adamo, R. Cammi, 
 J. W. Ochterski, R. L. Martin, K. Morokuma, O. Farkas, 
 J. B. Foresman, and D. J. Fox, Gaussian, Inc., Wallingford CT, 2019.
 
 ******************************************
 Gaussian 16:  ES64L-G16RevC.01  3-Jul-2019
                 7-Dec-2024 
 ******************************************
 Default route: SCF=Direct
 ----------------------------------------------------
 # m06/genecp scf=tight int=ultrafine 5d freq=noraman
 ----------------------------------------------------
 1/10=4,30=1,38=1/1,3;
 2/12=2,17=6,18=5,40=1/2;
 3/5=7,8=1,11=2,16=1,17=8,25=1,30=1,71=2,74=-54,75=-5,140=1/1,2,3;
 4//1;
 5/5=2,32=2,38=5,98=1/2;
 8/6=4,10=90,11=11/1;
 11/6=1,8=1,9=11,15=111,16=1/1,2,10;
 10/6=1/2;
 6/7=2,8=2,9=2,10=2,28=1/1;
 7/8=1,10=1,25=1/1,2,3,16;
 1/10=4,30=1/3;
 99//99;
 ------
 OPT-TS
 ------
 Symbolic Z-matrix:
 Charge =  0 Multiplicity = 1
 C                     0.11508  -0.73742   2.26031 
 C                    -0.32679  -1.74728   0.22045 
 C                    -1.33079  -2.53318   0.77386 
 C                    -1.63392  -2.38473   2.12371 
 C                    -0.8929   -1.4869    2.87405 
 C                     0.97877   0.2069    2.99741 
 C                     2.75216   1.70993   2.88773 
 C                     2.70911   1.93629   4.25641 
 C                     1.75547   1.2655    5.01175 
 C                     0.88423   0.39316   4.37784 
 H                    -0.07152  -1.81933  -0.83863 
 H                    -2.43627  -2.97272   2.5662 
 H                    -1.10775  -1.37221   3.93346 
 H                     3.48342   2.1911    2.23701 
 H                     1.69104   1.41443   6.08793 
 H                     0.14008  -0.14524   4.9585 
 N                     0.36181  -0.86812   0.9456 
 N                     1.90703   0.8705    2.27678 
 Ir                    2.01021   0.45795   0.06127 
 O                     4.09932   1.66628  -1.82751 
 O                     3.68796  -1.21882  -1.9664 
 O                     4.72448  -0.71271   1.09281 
 B                     2.4507   -0.75583  -1.5404 
 B                     3.60613   1.55022  -0.53439 
 B                     3.41803  -0.97171   0.7153 
 O                     3.07233  -2.28262   1.02651 
 O                     4.37404   2.33634   0.33087 
 C                     5.36375   3.03398  -0.44265 
 C                     5.43575   2.16835  -1.73217 
 C                     5.33801  -1.9601    1.46076 
 C                     4.10699  -2.81909   1.86471 
 C                     3.49526  -1.92062  -3.20259 
 C                     2.02648  -2.40468  -3.06906 
 O                     1.43797  -1.33415  -2.3081 
 C                     5.77604   2.92769  -2.99824 
 H                     6.76988   3.39259  -2.92276 
 H                     5.79107   2.23288  -3.84834 
 H                     5.03829   3.70782  -3.21632 
 C                     6.35491   0.96038  -1.58146 
 H                     6.16701   0.27069  -2.41561 
 H                     7.41597   1.24643  -1.59029 
 H                     6.13003   0.41431  -0.65552 
 C                     4.83591   4.43858  -0.70005 
 H                     4.59414   4.90906   0.26247 
 H                     5.57673   5.06768  -1.21209 
 H                     3.92081   4.41187  -1.30649 
 C                     6.65041   3.09723   0.35605 
 H                     7.46837   3.51588  -0.2482 
 H                     6.51504   3.74372   1.23341 
 H                     6.94517   2.10306   0.71092 
 C                     3.69178  -0.90926  -4.32479 
 H                     4.68602  -0.4559   -4.21971 
 H                     3.62672  -1.37813  -5.31609 
 H                     2.95396  -0.09934  -4.26215 
 C                     4.5272   -3.02414  -3.31389 
 H                     4.37952  -3.60656  -4.23478 
 H                     5.53348  -2.58402  -3.34648 
 H                     4.48733  -3.71045  -2.45958 
 C                     1.27843  -2.55356  -4.37715 
 H                     1.76391  -3.302    -5.02004 
 H                     0.25212  -2.8908   -4.18293 
 H                     1.22448  -1.60481  -4.9219 
 C                     1.89051  -3.67207  -2.23348 
 H                     0.82687  -3.8498   -2.0222 
 H                     2.27945  -4.55412  -2.76009 
 H                     2.41236  -3.56856  -1.27039 
 C                     4.24046  -4.3038    1.59579 
 H                     3.3229   -4.82082   1.90514 
 H                     4.39636  -4.50533   0.52939 
 H                     5.08063  -4.73354   2.16036 
 C                     3.66362  -2.5838    3.30448 
 H                     2.6717   -3.03394   3.44427 
 H                     4.3541   -3.03313   4.03115 
 H                     3.57957  -1.50837   3.52007 
 C                     6.33576  -1.70158   2.57133 
 H                     6.77596  -2.64237   2.93268 
 H                     7.14971  -1.07028   2.19091 
 H                     5.87614  -1.1796    3.41811 
 C                     6.05432  -2.49427   0.22838 
 H                     6.80061  -1.75881  -0.09915 
 H                     6.57381  -3.43993   0.43435 
 H                     5.34742  -2.63704  -0.59847 
 H                     1.30038   1.1402   -1.26738 
 C                     0.5412    2.08294  -0.21502 
 C                    -0.84048   1.87385  -0.30684 
 C                     0.98363   3.40084  -0.02377 
 C                    -1.76296   2.9225   -0.18833 
 H                    -1.21518   0.86754  -0.51379 
 C                     0.0825    4.45223   0.1094 
 H                     2.05366   3.60281   0.04888 
 C                    -1.28364   4.21981   0.02575 
 H                     0.44974   5.46354   0.28378 
 H                    -1.98791   5.04245   0.15032 
 H                     3.4158    2.62417   4.71339 
 C                    -3.2171    2.68802  -0.28812 
 C                    -4.04313   3.62194  -0.93098 
 C                    -3.82006   1.5466    0.25681 
 C                    -5.41519   3.44049  -1.00091 
 C                    -5.19229   1.35405   0.17607 
 H                    -3.20153   0.80638   0.76613 
 C                    -6.0093    2.3066   -0.4378 
 H                    -6.03018   4.16951  -1.52889 
 H                    -5.64478   0.45773   0.59972 
 C                    -3.33597  -3.10617  -0.20866 
 C                    -4.32238  -3.91269   0.33818 
 C                    -3.67163  -1.97462  -0.94153 
 C                    -5.66488  -3.57306   0.19724 
 H                    -4.03129  -4.80774   0.88632 
 C                    -5.00476  -1.636    -1.08913 
 H                    -2.88739  -1.36141  -1.38661 
 C                    -6.01485  -2.40498  -0.49146 
 H                    -6.44843  -4.1839    0.63278 
 H                    -5.27889  -0.74417  -1.65399 
 H                    -3.59037   4.48999  -1.4082 
 N                    -7.31301  -1.91176  -0.60844 
 C                    -8.45935  -2.40166  -0.00213 
 H                    -7.37136  -0.96643  -0.98313 
 O                    -8.54111  -3.49508   0.53703 
 N                    -9.5061   -1.51873  -0.10115 
 H                    -9.30528  -0.57079  -0.40424 
 C                    -7.46506   2.02706  -0.57126 
 O                    -7.86324   0.90305  -0.89659 
 C                    -10.77941  -1.81273   0.50153 
 H                    -11.60176  -1.65285  -0.20827 
 H                    -10.76945  -2.86532   0.79851 
 H                    -10.96738  -1.20326   1.3982 
 O                    -1.99033  -3.42199  -0.02273 
 C                    -8.08146   4.24535   0.39599 
 H                    -7.05805   4.24219   0.77615 
 H                    -8.23125   5.14723  -0.21449 
 H                    -8.76868   4.29356   1.2533 
 C                    -9.75379   2.7853   -0.63504 
 H                    -9.85141   2.09197  -1.4736 
 H                    -10.25581   2.34837   0.24227 
 H                    -10.24823   3.73121  -0.88608 
 N                    -8.35081   3.04411  -0.37179 
 

 GradGradGradGradGradGradGradGradGradGradGradGradGradGradGradGradGradGrad
 Berny optimization.
 Initialization pass.
 Trust Radius=3.00D-01 FncErr=1.00D-07 GrdErr=1.00D-07 EigMax=2.50D+02 EigMin=1.00D-04
 Number of steps in this run=      2 maximum allowed number of steps=      2.
 GradGradGradGradGradGradGradGradGradGradGradGradGradGradGradGradGradGrad

 Stoichiometry    C51H67B3IrN5O9
 Framework group  C1[X(C51H67B3IrN5O9)]
 Deg. of freedom   402
 Full point group                 C1      NOp   1
 Largest Abelian subgroup         C1      NOp   1
 Largest concise Abelian subgroup C1      NOp   1
                         Standard orientation:                         
 ---------------------------------------------------------------------
 Center     Atomic      Atomic             Coordinates (Angstroms)
 Number     Number       Type             X           Y           Z
 ---------------------------------------------------------------------
      1          6           0        0.115080   -0.737421    2.260309
      2          6           0       -0.326790   -1.747281    0.220449
      3          6           0       -1.330790   -2.533181    0.773859
      4          6           0       -1.633920   -2.384731    2.123709
      5          6           0       -0.892900   -1.486901    2.874049
      6          6           0        0.978770    0.206899    2.997409
      7          6           0        2.752160    1.709929    2.887729
      8          6           0        2.709110    1.936289    4.256409
      9          6           0        1.755470    1.265499    5.011749
     10          6           0        0.884230    0.393159    4.377839
     11          1           0       -0.071520   -1.819331   -0.838631
     12          1           0       -2.436270   -2.972721    2.566199
     13          1           0       -1.107750   -1.372211    3.933459
     14          1           0        3.483420    2.191099    2.237009
     15          1           0        1.691040    1.414429    6.087929
     16          1           0        0.140080   -0.145241    4.958499
     17          7           0        0.361810   -0.868121    0.945599
     18          7           0        1.907030    0.870499    2.276779
     19         77           0        2.010210    0.457949    0.061269
     20          8           0        4.099320    1.666279   -1.827511
     21          8           0        3.687960   -1.218821   -1.966401
     22          8           0        4.724480   -0.712711    1.092809
     23          5           0        2.450700   -0.755831   -1.540401
     24          5           0        3.606130    1.550219   -0.534391
     25          5           0        3.418030   -0.971711    0.715299
     26          8           0        3.072330   -2.282621    1.026509
     27          8           0        4.374040    2.336339    0.330869
     28          6           0        5.363750    3.033979   -0.442651
     29          6           0        5.435750    2.168349   -1.732171
     30          6           0        5.338010   -1.960101    1.460759
     31          6           0        4.106990   -2.819091    1.864709
     32          6           0        3.495260   -1.920621   -3.202591
     33          6           0        2.026480   -2.404681   -3.069061
     34          8           0        1.437970   -1.334151   -2.308101
     35          6           0        5.776040    2.927689   -2.998241
     36          1           0        6.769880    3.392589   -2.922761
     37          1           0        5.791070    2.232879   -3.848341
     38          1           0        5.038290    3.707819   -3.216321
     39          6           0        6.354910    0.960379   -1.581461
     40          1           0        6.167010    0.270689   -2.415611
     41          1           0        7.415970    1.246429   -1.590291
     42          1           0        6.130030    0.414309   -0.655521
     43          6           0        4.835910    4.438579   -0.700051
     44          1           0        4.594140    4.909059    0.262469
     45          1           0        5.576730    5.067679   -1.212091
     46          1           0        3.920810    4.411869   -1.306491
     47          6           0        6.650410    3.097229    0.356049
     48          1           0        7.468370    3.515879   -0.248201
     49          1           0        6.515040    3.743719    1.233409
     50          1           0        6.945170    2.103059    0.710919
     51          6           0        3.691780   -0.909261   -4.324791
     52          1           0        4.686020   -0.455901   -4.219711
     53          1           0        3.626720   -1.378131   -5.316091
     54          1           0        2.953960   -0.099341   -4.262151
     55          6           0        4.527200   -3.024141   -3.313891
     56          1           0        4.379520   -3.606561   -4.234781
     57          1           0        5.533480   -2.584021   -3.346481
     58          1           0        4.487330   -3.710451   -2.459581
     59          6           0        1.278430   -2.553561   -4.377151
     60          1           0        1.763910   -3.302001   -5.020041
     61          1           0        0.252120   -2.890801   -4.182931
     62          1           0        1.224480   -1.604811   -4.921901
     63          6           0        1.890510   -3.672071   -2.233481
     64          1           0        0.826870   -3.849801   -2.022201
     65          1           0        2.279450   -4.554121   -2.760091
     66          1           0        2.412360   -3.568561   -1.270391
     67          6           0        4.240460   -4.303801    1.595789
     68          1           0        3.322900   -4.820821    1.905139
     69          1           0        4.396360   -4.505331    0.529389
     70          1           0        5.080630   -4.733541    2.160359
     71          6           0        3.663620   -2.583801    3.304479
     72          1           0        2.671700   -3.033941    3.444269
     73          1           0        4.354100   -3.033131    4.031149
     74          1           0        3.579570   -1.508371    3.520069
     75          6           0        6.335760   -1.701581    2.571329
     76          1           0        6.775960   -2.642371    2.932679
     77          1           0        7.149710   -1.070281    2.190909
     78          1           0        5.876140   -1.179601    3.418109
     79          6           0        6.054320   -2.494271    0.228379
     80          1           0        6.800610   -1.758811   -0.099151
     81          1           0        6.573810   -3.439931    0.434349
     82          1           0        5.347420   -2.637041   -0.598471
     83          1           0        1.300380    1.140199   -1.267381
     84          6           0        0.541200    2.082939   -0.215021
     85          6           0       -0.840480    1.873849   -0.306841
     86          6           0        0.983630    3.400839   -0.023771
     87          6           0       -1.762960    2.922499   -0.188331
     88          1           0       -1.215180    0.867539   -0.513791
     89          6           0        0.082500    4.452229    0.109399
     90          1           0        2.053660    3.602809    0.048879
     91          6           0       -1.283640    4.219809    0.025749
     92          1           0        0.449740    5.463539    0.283779
     93          1           0       -1.987910    5.042449    0.150319
     94          1           0        3.415800    2.624169    4.713389
     95          6           0       -3.217100    2.688019   -0.288121
     96          6           0       -4.043130    3.621939   -0.930981
     97          6           0       -3.820060    1.546599    0.256809
     98          6           0       -5.415190    3.440489   -1.000911
     99          6           0       -5.192290    1.354049    0.176069
    100          1           0       -3.201530    0.806379    0.766129
    101          6           0       -6.009300    2.306599   -0.437801
    102          1           0       -6.030180    4.169509   -1.528891
    103          1           0       -5.644780    0.457729    0.599719
    104          6           0       -3.335970   -3.106171   -0.208661
    105          6           0       -4.322380   -3.912691    0.338179
    106          6           0       -3.671630   -1.974621   -0.941531
    107          6           0       -5.664880   -3.573061    0.197239
    108          1           0       -4.031290   -4.807741    0.886319
    109          6           0       -5.004760   -1.636001   -1.089131
    110          1           0       -2.887390   -1.361411   -1.386611
    111          6           0       -6.014850   -2.404981   -0.491461
    112          1           0       -6.448430   -4.183901    0.632779
    113          1           0       -5.278890   -0.744171   -1.653991
    114          1           0       -3.590370    4.489989   -1.408201
    115          7           0       -7.313010   -1.911761   -0.608441
    116          6           0       -8.459350   -2.401661   -0.002131
    117          1           0       -7.371360   -0.966431   -0.983131
    118          8           0       -8.541110   -3.495081    0.537029
    119          7           0       -9.506100   -1.518731   -0.101151
    120          1           0       -9.305280   -0.570791   -0.404241
    121          6           0       -7.465060    2.027059   -0.571261
    122          8           0       -7.863240    0.903049   -0.896591
    123          6           0      -10.779410   -1.812731    0.501529
    124          1           0      -11.601760   -1.652851   -0.208271
    125          1           0      -10.769450   -2.865321    0.798509
    126          1           0      -10.967380   -1.203261    1.398199
    127          8           0       -1.990330   -3.421991   -0.022731
    128          6           0       -8.081460    4.245349    0.395989
    129          1           0       -7.058050    4.242189    0.776149
    130          1           0       -8.231250    5.147229   -0.214491
    131          1           0       -8.768680    4.293559    1.253299
    132          6           0       -9.753790    2.785299   -0.635041
    133          1           0       -9.851410    2.091969   -1.473601
    134          1           0      -10.255810    2.348369    0.242269
    135          1           0      -10.248230    3.731209   -0.886081
    136          7           0       -8.350810    3.044109   -0.371791
 ---------------------------------------------------------------------
 Rotational constants (GHZ):           0.0537145           0.0189090           0.0172854
 General basis read from cards:  (5D, 7F)
 ======================================================================================================
                                       Pseudopotential Parameters
 ======================================================================================================
  Center     Atomic      Valence      Angular      Power
  Number     Number     Electrons     Momentum     of R      Exponent        Coefficient   SO-Coeffient
 ======================================================================================================
    1          6
                                   No pseudopotential on this center.
    2          6
                                   No pseudopotential on this center.
    3          6
                                   No pseudopotential on this center.
    4          6
                                   No pseudopotential on this center.
    5          6
                                   No pseudopotential on this center.
    6          6
                                   No pseudopotential on this center.
    7          6
                                   No pseudopotential on this center.
    8          6
                                   No pseudopotential on this center.
    9          6
                                   No pseudopotential on this center.
   10          6
                                   No pseudopotential on this center.
   11          1
                                   No pseudopotential on this center.
   12          1
                                   No pseudopotential on this center.
   13          1
                                   No pseudopotential on this center.
   14          1
                                   No pseudopotential on this center.
   15          1
                                   No pseudopotential on this center.
   16          1
                                   No pseudopotential on this center.
   17          7
                                   No pseudopotential on this center.
   18          7
                                   No pseudopotential on this center.
   19         77           17
                                      G and up 
                                                     1      823.5880147       -0.15780140    0.00000000
                                                     2      364.6613336    -1517.52704460    0.00000000
                                                     2       55.7082801     -316.53065290    0.00000000
                                                     2       12.0464544      -91.88809410    0.00000000
                                                     2        3.5120610       -9.22417730    0.00000000
                                      S - G
                                                     0      188.0490770        3.15780140    0.00000000
                                                     1      340.4194712       26.83225770    0.00000000
                                                     2      128.2373673      800.42500070    0.00000000
                                                     2       33.8644961      369.40506830    0.00000000
                                                     2        4.7560005      242.41718990    0.00000000
                                                     2        3.9649974     -118.21732820    0.00000000
                                      P - G
                                                     0      289.7291139        2.15780140    0.00000000
                                                     1       87.4633789       61.96786100    0.00000000
                                                     2       30.4363766      269.05819860    0.00000000
                                                     2        4.0553412      231.16547930    0.00000000
                                                     2        3.5525341     -133.69526670    0.00000000
                                      D - G
                                                     0      136.4017106        3.15780140    0.00000000
                                                     1       95.0776925       45.93498030    0.00000000
                                                     2       49.2258410      359.03446680    0.00000000
                                                     2       15.0874145      176.47401190    0.00000000
                                                     2        4.0405764       54.51552860    0.00000000
                                      F - G
                                                     0      127.3507908        3.95461970    0.00000000
                                                     1       66.2364374       52.97736550    0.00000000
                                                     2       34.4299229      274.86433830    0.00000000
                                                     2       10.1995721      137.20473380    0.00000000
                                                     2        2.5409702       14.86333050    0.00000000
   20          8
                                   No pseudopotential on this center.
   21          8
                                   No pseudopotential on this center.
   22          8
                                   No pseudopotential on this center.
   23          5
                                   No pseudopotential on this center.
   24          5
                                   No pseudopotential on this center.
   25          5
                                   No pseudopotential on this center.
   26          8
                                   No pseudopotential on this center.
   27          8
                                   No pseudopotential on this center.
   28          6
                                   No pseudopotential on this center.
   29          6
                                   No pseudopotential on this center.
   30          6
                                   No pseudopotential on this center.
   31          6
                                   No pseudopotential on this center.
   32          6
                                   No pseudopotential on this center.
   33          6
                                   No pseudopotential on this center.
   34          8
                                   No pseudopotential on this center.
   35          6
                                   No pseudopotential on this center.
   36          1
                                   No pseudopotential on this center.
   37          1
                                   No pseudopotential on this center.
   38          1
                                   No pseudopotential on this center.
   39          6
                                   No pseudopotential on this center.
   40          1
                                   No pseudopotential on this center.
   41          1
                                   No pseudopotential on this center.
   42          1
                                   No pseudopotential on this center.
   43          6
                                   No pseudopotential on this center.
   44          1
                                   No pseudopotential on this center.
   45          1
                                   No pseudopotential on this center.
   46          1
                                   No pseudopotential on this center.
   47          6
                                   No pseudopotential on this center.
   48          1
                                   No pseudopotential on this center.
   49          1
                                   No pseudopotential on this center.
   50          1
                                   No pseudopotential on this center.
   51          6
                                   No pseudopotential on this center.
   52          1
                                   No pseudopotential on this center.
   53          1
                                   No pseudopotential on this center.
   54          1
                                   No pseudopotential on this center.
   55          6
                                   No pseudopotential on this center.
   56          1
                                   No pseudopotential on this center.
   57          1
                                   No pseudopotential on this center.
   58          1
                                   No pseudopotential on this center.
   59          6
                                   No pseudopotential on this center.
   60          1
                                   No pseudopotential on this center.
   61          1
                                   No pseudopotential on this center.
   62          1
                                   No pseudopotential on this center.
   63          6
                                   No pseudopotential on this center.
   64          1
                                   No pseudopotential on this center.
   65          1
                                   No pseudopotential on this center.
   66          1
                                   No pseudopotential on this center.
   67          6
                                   No pseudopotential on this center.
   68          1
                                   No pseudopotential on this center.
   69          1
                                   No pseudopotential on this center.
   70          1
                                   No pseudopotential on this center.
   71          6
                                   No pseudopotential on this center.
   72          1
                                   No pseudopotential on this center.
   73          1
                                   No pseudopotential on this center.
   74          1
                                   No pseudopotential on this center.
   75          6
                                   No pseudopotential on this center.
   76          1
                                   No pseudopotential on this center.
   77          1
                                   No pseudopotential on this center.
   78          1
                                   No pseudopotential on this center.
   79          6
                                   No pseudopotential on this center.
   80          1
                                   No pseudopotential on this center.
   81          1
                                   No pseudopotential on this center.
   82          1
                                   No pseudopotential on this center.
   83          1
                                   No pseudopotential on this center.
   84          6
                                   No pseudopotential on this center.
   85          6
                                   No pseudopotential on this center.
   86          6
                                   No pseudopotential on this center.
   87          6
                                   No pseudopotential on this center.
   88          1
                                   No pseudopotential on this center.
   89          6
                                   No pseudopotential on this center.
   90          1
                                   No pseudopotential on this center.
   91          6
                                   No pseudopotential on this center.
   92          1
                                   No pseudopotential on this center.
   93          1
                                   No pseudopotential on this center.
   94          1
                                   No pseudopotential on this center.
   95          6
                                   No pseudopotential on this center.
   96          6
                                   No pseudopotential on this center.
   97          6
                                   No pseudopotential on this center.
   98          6
                                   No pseudopotential on this center.
   99          6
                                   No pseudopotential on this center.
  100          1
                                   No pseudopotential on this center.
  101          6
                                   No pseudopotential on this center.
  102          1
                                   No pseudopotential on this center.
  103          1
                                   No pseudopotential on this center.
  104          6
                                   No pseudopotential on this center.
  105          6
                                   No pseudopotential on this center.
  106          6
                                   No pseudopotential on this center.
  107          6
                                   No pseudopotential on this center.
  108          1
                                   No pseudopotential on this center.
  109          6
                                   No pseudopotential on this center.
  110          1
                                   No pseudopotential on this center.
  111          6
                                   No pseudopotential on this center.
  112          1
                                   No pseudopotential on this center.
  113          1
                                   No pseudopotential on this center.
  114          1
                                   No pseudopotential on this center.
  115          7
                                   No pseudopotential on this center.
  116          6
                                   No pseudopotential on this center.
  117          1
                                   No pseudopotential on this center.
  118          8
                                   No pseudopotential on this center.
  119          7
                                   No pseudopotential on this center.
  120          1
                                   No pseudopotential on this center.
  121          6
                                   No pseudopotential on this center.
  122          8
                                   No pseudopotential on this center.
  123          6
                                   No pseudopotential on this center.
  124          1
                                   No pseudopotential on this center.
  125          1
                                   No pseudopotential on this center.
  126          1
                                   No pseudopotential on this center.
  127          8
                                   No pseudopotential on this center.
  128          6
                                   No pseudopotential on this center.
  129          1
                                   No pseudopotential on this center.
  130          1
                                   No pseudopotential on this center.
  131          1
                                   No pseudopotential on this center.
  132          6
                                   No pseudopotential on this center.
  133          1
                                   No pseudopotential on this center.
  134          1
                                   No pseudopotential on this center.
  135          1
                                   No pseudopotential on this center.
  136          7
                                   No pseudopotential on this center.
 ======================================================================================================
 There are  1178 symmetry adapted cartesian basis functions of A   symmetry.
 There are  1108 symmetry adapted basis functions of A   symmetry.
  1108 basis functions,  2215 primitive gaussians,  1178 cartesian basis functions
   256 alpha electrons      256 beta electrons
       nuclear repulsion energy     12167.0628633051 Hartrees.
 NAtoms=  136 NActive=  136 NUniq=  136 SFac= 1.00D+00 NAtFMM=   60 NAOKFM=T Big=T
 Integral buffers will be    131072 words long.
 Raffenetti 2 integral format.
 Two-electron integral symmetry is turned on.
 One-electron integrals computed using PRISM.
   1 Symmetry operations used in ECPInt.
 ECPInt:  NShTT=   85905 NPrTT=  534464 LenC2=   52419 LenP2D=  157551.
 LDataN:  DoStor=T MaxTD1= 6 Len=  172
 NBasis=  1108 RedAO= T EigKep=  3.99D-04  NBF=  1108
 NBsUse=  1108 1.00D-06 EigRej= -1.00D+00 NBFU=  1108
 Defaulting to unpruned grid for atomic number  77.
 ExpMin= 2.90D-02 ExpMax= 5.48D+03 ExpMxC= 8.25D+02 IAcc=3 IRadAn=         5 AccDes= 0.00D+00
 Harris functional with IExCor= 1009 and IRadAn=       5 diagonalized for initial guess.
 HarFok:  IExCor= 1009 AccDes= 0.00D+00 IRadAn=         5 IDoV= 1 UseB2=F ITyADJ=14
 ICtDFT=  3500011 ScaDFX=  1.000000  1.000000  1.000000  1.000000
 Defaulting to unpruned grid for atomic number  77.
 FoFCou: FMM=F IPFlag=           0 FMFlag=      100000 FMFlg1=        2001
         NFxFlg=           0 DoJE=T BraDBF=F KetDBF=T FulRan=T
         wScrn=  0.000000 ICntrl=       500 IOpCl=  0 I1Cent=   200000004 NGrid=           0
         NMat0=    1 NMatS0=      1 NMatT0=    0 NMatD0=    1 NMtDS0=    0 NMtDT0=    0
 Petite list used in FoFCou.
 Requested convergence on RMS density matrix=1.00D-08 within 128 cycles.
 Requested convergence on MAX density matrix=1.00D-06.
 Requested convergence on             energy=1.00D-06.
 No special actions if energy rises.
 Defaulting to unpruned grid for atomic number  77.
 Defaulting to unpruned grid for atomic number  77.
 Defaulting to unpruned grid for atomic number  77.
 Defaulting to unpruned grid for atomic number  77.
 Defaulting to unpruned grid for atomic number  77.
 Defaulting to unpruned grid for atomic number  77.
 Defaulting to unpruned grid for atomic number  77.
 Defaulting to unpruned grid for atomic number  77.
 Defaulting to unpruned grid for atomic number  77.
 Defaulting to unpruned grid for atomic number  77.
 Defaulting to unpruned grid for atomic number  77.
 Defaulting to unpruned grid for atomic number  77.
 Defaulting to unpruned grid for atomic number  77.
 Defaulting to unpruned grid for atomic number  77.
 Defaulting to unpruned grid for atomic number  77.
 Defaulting to unpruned grid for atomic number  77.
 SCF Done:  E(RM06) =  -3112.12539087     A.U. after   15 cycles
            NFock= 15  Conv=0.58D-08     -V/T= 2.0300
 DoSCS=F DFT=T ScalE2(SS,OS)=  1.000000  1.000000
 Range of M.O.s used for correlation:     1  1108
 NBasis=  1108 NAE=   256 NBE=   256 NFC=     0 NFV=     0
 NROrb=   1108 NOA=   256 NOB=   256 NVA=   852 NVB=   852

 **** Warning!!: The largest alpha MO coefficient is  0.12947559D+02

   1 Symmetry operations used in ECPInt.
 ECPInt:  NShTT=   85905 NPrTT=  534464 LenC2=   52419 LenP2D=  157551.
 LDataN:  DoStor=T MaxTD1= 7 Len=  274
 Number of processors reduced to   5 by ecpmxn.
 Symmetrizing basis deriv contribution to polar:
 IMax=3 JMax=2 DiffMx= 0.00D+00
 G2DrvN: will do   137 centers at a time, making    1 passes.
 Calling FoFCou, ICntrl=  3107 FMM=T I1Cent=   0 AccDes= 0.00D+00.
 Defaulting to unpruned grid for atomic number  77.
 Defaulting to unpruned grid for atomic number  77.
 Defaulting to unpruned grid for atomic number  77.
 Defaulting to unpruned grid for atomic number  77.
 Defaulting to unpruned grid for atomic number  77.
 Defaulting to unpruned grid for atomic number  77.
 Defaulting to unpruned grid for atomic number  77.
 Defaulting to unpruned grid for atomic number  77.
 Defaulting to unpruned grid for atomic number  77.
 Defaulting to unpruned grid for atomic number  77.
 Defaulting to unpruned grid for atomic number  77.
 Defaulting to unpruned grid for atomic number  77.
 Defaulting to unpruned grid for atomic number  77.
 Defaulting to unpruned grid for atomic number  77.
 Defaulting to unpruned grid for atomic number  77.
 Defaulting to unpruned grid for atomic number  77.
 End of G2Drv F.D. properties file   721 does not exist.
 End of G2Drv F.D. properties file   722 does not exist.
 End of G2Drv F.D. properties file   788 does not exist.
          IDoAtm=11111111111111111111111111111111111111111111111111
          IDoAtm=11111111111111111111111111111111111111111111111111
          IDoAtm=111111111111111111111111111111111111
          Differentiating once with respect to electric field.
                with respect to dipole field.
          Differentiating once with respect to nuclear coordinates.
 Defaulting to unpruned grid for atomic number  77.
 CalDSu exits because no D1Ps are significant.
 Defaulting to unpruned grid for atomic number  77.
 Defaulting to unpruned grid for atomic number  77.
 Defaulting to unpruned grid for atomic number  77.
 Defaulting to unpruned grid for atomic number  77.
 Defaulting to unpruned grid for atomic number  77.
 Defaulting to unpruned grid for atomic number  77.
 Defaulting to unpruned grid for atomic number  77.
 Defaulting to unpruned grid for atomic number  77.
 Defaulting to unpruned grid for atomic number  77.
 Defaulting to unpruned grid for atomic number  77.
 Defaulting to unpruned grid for atomic number  77.
 Defaulting to unpruned grid for atomic number  77.
 Defaulting to unpruned grid for atomic number  77.
 Defaulting to unpruned grid for atomic number  77.
 Defaulting to unpruned grid for atomic number  77.
 Defaulting to unpruned grid for atomic number  77.
          There are   411 degrees of freedom in the 1st order CPHF.  IDoFFX=6 NUNeed=     3.
    408 vectors produced by pass  0 Test12= 2.18D-13 1.00D-09 XBig12= 7.99D+02 8.94D+00.
 AX will form    72 AO Fock derivatives at one time.
    408 vectors produced by pass  1 Test12= 2.18D-13 1.00D-09 XBig12= 1.07D+02 1.24D+00.
    408 vectors produced by pass  2 Test12= 2.18D-13 1.00D-09 XBig12= 1.24D+00 8.12D-02.
    408 vectors produced by pass  3 Test12= 2.18D-13 1.00D-09 XBig12= 9.27D-03 5.29D-03.
    408 vectors produced by pass  4 Test12= 2.18D-13 1.00D-09 XBig12= 3.26D-05 4.71D-04.
    373 vectors produced by pass  5 Test12= 2.18D-13 1.00D-09 XBig12= 6.21D-08 1.22D-05.
    107 vectors produced by pass  6 Test12= 2.18D-13 1.00D-09 XBig12= 9.20D-11 5.11D-07.
      3 vectors produced by pass  7 Test12= 2.18D-13 1.00D-09 XBig12= 1.31D-13 2.23D-08.
 InvSVY:  IOpt=1 It=  1 EMax= 2.49D-14
 Solved reduced A of dimension  2523 with   411 vectors.
 Isotropic polarizability for W=    0.000000      704.20 Bohr**3.
 End of Minotr F.D. properties file   721 does not exist.
 End of Minotr F.D. properties file   722 does not exist.
 End of Minotr F.D. properties file   788 does not exist.
 Hyperfine terms turned off by default for NAtoms > 100.

 **********************************************************************

            Population analysis using the SCF Density.

 **********************************************************************

 Orbital symmetries:
       Occupied  (A) (A) (A) (A) (A) (A) (A) (A) (A) (A) (A) (A)
                 (A) (A) (A) (A) (A) (A) (A) (A) (A) (A) (A) (A)
                 (A) (A) (A) (A) (A) (A) (A) (A) (A) (A) (A) (A)
                 (A) (A) (A) (A) (A) (A) (A) (A) (A) (A) (A) (A)
                 (A) (A) (A) (A) (A) (A) (A) (A) (A) (A) (A) (A)
                 (A) (A) (A) (A) (A) (A) (A) (A) (A) (A) (A) (A)
                 (A) (A) (A) (A) (A) (A) (A) (A) (A) (A) (A) (A)
                 (A) (A) (A) (A) (A) (A) (A) (A) (A) (A) (A) (A)
                 (A) (A) (A) (A) (A) (A) (A) (A) (A) (A) (A) (A)
                 (A) (A) (A) (A) (A) (A) (A) (A) (A) (A) (A) (A)
                 (A) (A) (A) (A) (A) (A) (A) (A) (A) (A) (A) (A)
                 (A) (A) (A) (A) (A) (A) (A) (A) (A) (A) (A) (A)
                 (A) (A) (A) (A) (A) (A) (A) (A) (A) (A) (A) (A)
                 (A) (A) (A) (A) (A) (A) (A) (A) (A) (A) (A) (A)
                 (A) (A) (A) (A) (A) (A) (A) (A) (A) (A) (A) (A)
                 (A) (A) (A) (A) (A) (A) (A) (A) (A) (A) (A) (A)
                 (A) (A) (A) (A) (A) (A) (A) (A) (A) (A) (A) (A)
                 (A) (A) (A) (A) (A) (A) (A) (A) (A) (A) (A) (A)
                 (A) (A) (A) (A) (A) (A) (A) (A) (A) (A) (A) (A)
                 (A) (A) (A) (A) (A) (A) (A) (A) (A) (A) (A) (A)
                 (A) (A) (A) (A) (A) (A) (A) (A) (A) (A) (A) (A)
                 (A) (A) (A) (A)
       Virtual   (A) (A) (A) (A) (A) (A) (A) (A) (A) (A) (A) (A)
                 (A) (A) (A) (A) (A) (A) (A) (A) (A) (A) (A) (A)
                 (A) (A) (A) (A) (A) (A) (A) (A) (A) (A) (A) (A)
                 (A) (A) (A) (A) (A) (A) (A) (A) (A) (A) (A) (A)
                 (A) (A) (A) (A) (A) (A) (A) (A) (A) (A) (A) (A)
                 (A) (A) (A) (A) (A) (A) (A) (A) (A) (A) (A) (A)
                 (A) (A) (A) (A) (A) (A) (A) (A) (A) (A) (A) (A)
                 (A) (A) (A) (A) (A) (A) (A) (A) (A) (A) (A) (A)
                 (A) (A) (A) (A) (A) (A) (A) (A) (A) (A) (A) (A)
                 (A) (A) (A) (A) (A) (A) (A) (A) (A) (A) (A) (A)
                 (A) (A) (A) (A) (A) (A) (A) (A) (A) (A) (A) (A)
                 (A) (A) (A) (A) (A) (A) (A) (A) (A) (A) (A) (A)
                 (A) (A) (A) (A) (A) (A) (A) (A) (A) (A) (A) (A)
                 (A) (A) (A) (A) (A) (A) (A) (A) (A) (A) (A) (A)
                 (A) (A) (A) (A) (A) (A) (A) (A) (A) (A) (A) (A)
                 (A) (A) (A) (A) (A) (A) (A) (A) (A) (A) (A) (A)
                 (A) (A) (A) (A) (A) (A) (A) (A) (A) (A) (A) (A)
                 (A) (A) (A) (A) (A) (A) (A) (A) (A) (A) (A) (A)
                 (A) (A) (A) (A) (A) (A) (A) (A) (A) (A) (A) (A)
                 (A) (A) (A) (A) (A) (A) (A) (A) (A) (A) (A) (A)
                 (A) (A) (A) (A) (A) (A) (A) (A) (A) (A) (A) (A)
                 (A) (A) (A) (A) (A) (A) (A) (A) (A) (A) (A) (A)
                 (A) (A) (A) (A) (A) (A) (A) (A) (A) (A) (A) (A)
                 (A) (A) (A) (A) (A) (A) (A) (A) (A) (A) (A) (A)
                 (A) (A) (A) (A) (A) (A) (A) (A) (A) (A) (A) (A)
                 (A) (A) (A) (A) (A) (A) (A) (A) (A) (A) (A) (A)
                 (A) (A) (A) (A) (A) (A) (A) (A) (A) (A) (A) (A)
                 (A) (A) (A) (A) (A) (A) (A) (A) (A) (A) (A) (A)
                 (A) (A) (A) (A) (A) (A) (A) (A) (A) (A) (A) (A)
                 (A) (A) (A) (A) (A) (A) (A) (A) (A) (A) (A) (A)
                 (A) (A) (A) (A) (A) (A) (A) (A) (A) (A) (A) (A)
                 (A) (A) (A) (A) (A) (A) (A) (A) (A) (A) (A) (A)
                 (A) (A) (A) (A) (A) (A) (A) (A) (A) (A) (A) (A)
                 (A) (A) (A) (A) (A) (A) (A) (A) (A) (A) (A) (A)
                 (A) (A) (A) (A) (A) (A) (A) (A) (A) (A) (A) (A)
                 (A) (A) (A) (A) (A) (A) (A) (A) (A) (A) (A) (A)
                 (A) (A) (A) (A) (A) (A) (A) (A) (A) (A) (A) (A)
                 (A) (A) (A) (A) (A) (A) (A) (A) (A) (A) (A) (A)
                 (A) (A) (A) (A) (A) (A) (A) (A) (A) (A) (A) (A)
                 (A) (A) (A) (A) (A) (A) (A) (A) (A) (A) (A) (A)
                 (A) (A) (A) (A) (A) (A) (A) (A) (A) (A) (A) (A)
                 (A) (A) (A) (A) (A) (A) (A) (A) (A) (A) (A) (A)
                 (A) (A) (A) (A) (A) (A) (A) (A) (A) (A) (A) (A)
                 (A) (A) (A) (A) (A) (A) (A) (A) (A) (A) (A) (A)
                 (A) (A) (A) (A) (A) (A) (A) (A) (A) (A) (A) (A)
                 (A) (A) (A) (A) (A) (A) (A) (A) (A) (A) (A) (A)
                 (A) (A) (A) (A) (A) (A) (A) (A) (A) (A) (A) (A)
                 (A) (A) (A) (A) (A) (A) (A) (A) (A) (A) (A) (A)
                 (A) (A) (A) (A) (A) (A) (A) (A) (A) (A) (A) (A)
                 (A) (A) (A) (A) (A) (A) (A) (A) (A) (A) (A) (A)
                 (A) (A) (A) (A) (A) (A) (A) (A) (A) (A) (A) (A)
                 (A) (A) (A) (A) (A) (A) (A) (A) (A) (A) (A) (A)
                 (A) (A) (A) (A) (A) (A) (A) (A) (A) (A) (A) (A)
                 (A) (A) (A) (A) (A) (A) (A) (A) (A) (A) (A) (A)
                 (A) (A) (A) (A) (A) (A) (A) (A) (A) (A) (A) (A)
                 (A) (A) (A) (A) (A) (A) (A) (A) (A) (A) (A) (A)
                 (A) (A) (A) (A) (A) (A) (A) (A) (A) (A) (A) (A)
                 (A) (A) (A) (A) (A) (A) (A) (A) (A) (A) (A) (A)
                 (A) (A) (A) (A) (A) (A) (A) (A) (A) (A) (A) (A)
                 (A) (A) (A) (A) (A) (A) (A) (A) (A) (A) (A) (A)
                 (A) (A) (A) (A) (A) (A) (A) (A) (A) (A) (A) (A)
                 (A) (A) (A) (A) (A) (A) (A) (A) (A) (A) (A) (A)
                 (A) (A) (A) (A) (A) (A) (A) (A) (A) (A) (A) (A)
                 (A) (A) (A) (A) (A) (A) (A) (A) (A) (A) (A) (A)
                 (A) (A) (A) (A) (A) (A) (A) (A) (A) (A) (A) (A)
                 (A) (A) (A) (A) (A) (A) (A) (A) (A) (A) (A) (A)
                 (A) (A) (A) (A) (A) (A) (A) (A) (A) (A) (A) (A)
                 (A) (A) (A) (A) (A) (A) (A) (A) (A) (A) (A) (A)
                 (A) (A) (A) (A) (A) (A) (A) (A) (A) (A) (A) (A)
                 (A) (A) (A) (A) (A) (A) (A) (A) (A) (A) (A) (A)
                 (A) (A) (A) (A) (A) (A) (A) (A) (A) (A) (A) (A)
 The electronic state is 1-A.
 Alpha  occ. eigenvalues --  -19.26392 -19.22052 -19.20267 -19.20178 -19.20171
 Alpha  occ. eigenvalues --  -19.19814 -19.19769 -19.18855 -19.17216 -14.45534
 Alpha  occ. eigenvalues --  -14.44933 -14.44073 -14.41026 -14.40069 -10.37509
 Alpha  occ. eigenvalues --  -10.35968 -10.32924 -10.32051 -10.31348 -10.29940
 Alpha  occ. eigenvalues --  -10.29910 -10.29795 -10.29363 -10.29232 -10.29143
 Alpha  occ. eigenvalues --  -10.29021 -10.28941 -10.28880 -10.28844 -10.28761
 Alpha  occ. eigenvalues --  -10.28757 -10.28354 -10.28209 -10.28095 -10.28091
 Alpha  occ. eigenvalues --  -10.27466 -10.27092 -10.27030 -10.26834 -10.26423
 Alpha  occ. eigenvalues --  -10.26054 -10.25863 -10.25757 -10.24946 -10.24708
 Alpha  occ. eigenvalues --  -10.24516 -10.24467 -10.24348 -10.23790 -10.23679
 Alpha  occ. eigenvalues --  -10.23497 -10.23497 -10.23080 -10.22863 -10.22849
 Alpha  occ. eigenvalues --  -10.22763 -10.22554 -10.22327 -10.22323 -10.22182
 Alpha  occ. eigenvalues --  -10.22017 -10.21797 -10.21751 -10.21664 -10.20869
 Alpha  occ. eigenvalues --   -6.80372  -6.79646  -6.78581  -3.63053  -2.05551
 Alpha  occ. eigenvalues --   -2.05374  -2.03968  -1.10419  -1.07842  -1.06197
 Alpha  occ. eigenvalues --   -1.05951  -1.05357  -1.04648  -0.99666  -0.99177
 Alpha  occ. eigenvalues --   -0.99005  -0.98344  -0.97163  -0.97149  -0.94238
 Alpha  occ. eigenvalues --   -0.91063  -0.88600  -0.85356  -0.85098  -0.83985
 Alpha  occ. eigenvalues --   -0.83043  -0.82201  -0.80381  -0.79999  -0.79782
 Alpha  occ. eigenvalues --   -0.79655  -0.77294  -0.76859  -0.75425  -0.75199
 Alpha  occ. eigenvalues --   -0.74835  -0.74460  -0.74387  -0.74127  -0.74086
 Alpha  occ. eigenvalues --   -0.73698  -0.71454  -0.70434  -0.69878  -0.69737
 Alpha  occ. eigenvalues --   -0.69697  -0.67955  -0.67779  -0.67638  -0.67188
 Alpha  occ. eigenvalues --   -0.66890  -0.64675  -0.64512  -0.63923  -0.63181
 Alpha  occ. eigenvalues --   -0.62726  -0.61755  -0.61144  -0.61036  -0.60721
 Alpha  occ. eigenvalues --   -0.59022  -0.58709  -0.58124  -0.57377  -0.57109
 Alpha  occ. eigenvalues --   -0.55431  -0.55228  -0.54646  -0.54555  -0.54455
 Alpha  occ. eigenvalues --   -0.53810  -0.53791  -0.53602  -0.53401  -0.52895
 Alpha  occ. eigenvalues --   -0.52491  -0.51827  -0.51716  -0.50935  -0.50322
 Alpha  occ. eigenvalues --   -0.50109  -0.48983  -0.48076  -0.47632  -0.47492
 Alpha  occ. eigenvalues --   -0.47454  -0.46952  -0.46648  -0.46552  -0.46390
 Alpha  occ. eigenvalues --   -0.46056  -0.45976  -0.45853  -0.45754  -0.45476
 Alpha  occ. eigenvalues --   -0.45266  -0.45004  -0.44984  -0.44498  -0.44264
 Alpha  occ. eigenvalues --   -0.44205  -0.44015  -0.43918  -0.43857  -0.43714
 Alpha  occ. eigenvalues --   -0.43623  -0.43469  -0.43327  -0.43279  -0.43202
 Alpha  occ. eigenvalues --   -0.42821  -0.42696  -0.42531  -0.42294  -0.41822
 Alpha  occ. eigenvalues --   -0.41755  -0.41324  -0.41080  -0.40639  -0.40538
 Alpha  occ. eigenvalues --   -0.40170  -0.40031  -0.39790  -0.39651  -0.39615
 Alpha  occ. eigenvalues --   -0.39547  -0.39477  -0.39391  -0.39281  -0.39184
 Alpha  occ. eigenvalues --   -0.38991  -0.38628  -0.38536  -0.38382  -0.38270
 Alpha  occ. eigenvalues --   -0.38028  -0.37583  -0.37553  -0.37366  -0.37224
 Alpha  occ. eigenvalues --   -0.37065  -0.36791  -0.36619  -0.36572  -0.36152
 Alpha  occ. eigenvalues --   -0.36034  -0.35943  -0.35776  -0.35691  -0.35465
 Alpha  occ. eigenvalues --   -0.35296  -0.34868  -0.34731  -0.34609  -0.34209
 Alpha  occ. eigenvalues --   -0.34034  -0.33521  -0.33317  -0.32937  -0.32275
 Alpha  occ. eigenvalues --   -0.32195  -0.31776  -0.31578  -0.31468  -0.31090
 Alpha  occ. eigenvalues --   -0.30857  -0.30830  -0.30328  -0.30199  -0.29755
 Alpha  occ. eigenvalues --   -0.29714  -0.29509  -0.29411  -0.28024  -0.27914
 Alpha  occ. eigenvalues --   -0.27378  -0.27211  -0.26315  -0.26067  -0.25894
 Alpha  occ. eigenvalues --   -0.25772  -0.25439  -0.25208  -0.24992  -0.24672
 Alpha  occ. eigenvalues --   -0.23587  -0.22628  -0.22127  -0.21865  -0.21073
 Alpha  occ. eigenvalues --   -0.20713
 Alpha virt. eigenvalues --   -0.06499  -0.04163  -0.03577  -0.02816  -0.00926
 Alpha virt. eigenvalues --    0.00620   0.00991   0.01669   0.01713   0.02691
 Alpha virt. eigenvalues --    0.03853   0.05198   0.05448   0.06061   0.06677
 Alpha virt. eigenvalues --    0.07296   0.07534   0.07934   0.08407   0.09236
 Alpha virt. eigenvalues --    0.09572   0.09817   0.10143   0.10385   0.10628
 Alpha virt. eigenvalues --    0.11170   0.11334   0.11476   0.11649   0.11852
 Alpha virt. eigenvalues --    0.12109   0.12872   0.13086   0.13261   0.13310
 Alpha virt. eigenvalues --    0.13435   0.13661   0.13704   0.13893   0.14089
 Alpha virt. eigenvalues --    0.14137   0.14386   0.14753   0.15107   0.15227
 Alpha virt. eigenvalues --    0.15364   0.15383   0.15501   0.15766   0.15862
 Alpha virt. eigenvalues --    0.15922   0.16097   0.16171   0.16364   0.16444
 Alpha virt. eigenvalues --    0.16621   0.16718   0.16947   0.17216   0.17247
 Alpha virt. eigenvalues --    0.17562   0.17823   0.17917   0.18098   0.18106
 Alpha virt. eigenvalues --    0.18328   0.18401   0.18614   0.18700   0.18864
 Alpha virt. eigenvalues --    0.19046   0.19130   0.19505   0.19572   0.19727
 Alpha virt. eigenvalues --    0.19844   0.19918   0.20131   0.20298   0.20494
 Alpha virt. eigenvalues --    0.20571   0.20719   0.20900   0.21177   0.21273
 Alpha virt. eigenvalues --    0.21285   0.21445   0.21757   0.21899   0.22086
 Alpha virt. eigenvalues --    0.22636   0.22854   0.22963   0.23259   0.23485
 Alpha virt. eigenvalues --    0.23783   0.24276   0.24306   0.24451   0.24481
 Alpha virt. eigenvalues --    0.24609   0.25140   0.25226   0.25543   0.25790
 Alpha virt. eigenvalues --    0.25985   0.26065   0.26347   0.26456   0.26980
 Alpha virt. eigenvalues --    0.27335   0.27363   0.27593   0.27787   0.28029
 Alpha virt. eigenvalues --    0.28363   0.28679   0.29187   0.29625   0.29888
 Alpha virt. eigenvalues --    0.30381   0.30505   0.30748   0.31167   0.31284
 Alpha virt. eigenvalues --    0.31456   0.31580   0.31872   0.32541   0.32971
 Alpha virt. eigenvalues --    0.33378   0.33584   0.33802   0.34101   0.34252
 Alpha virt. eigenvalues --    0.34928   0.34984   0.35910   0.36051   0.36304
 Alpha virt. eigenvalues --    0.36412   0.36751   0.37181   0.37931   0.38337
 Alpha virt. eigenvalues --    0.38445   0.39318   0.40190   0.40537   0.40945
 Alpha virt. eigenvalues --    0.41214   0.42040   0.42509   0.42726   0.43271
 Alpha virt. eigenvalues --    0.44704   0.45260   0.46442   0.47445   0.47653
 Alpha virt. eigenvalues --    0.48021   0.48530   0.49114   0.49257   0.49466
 Alpha virt. eigenvalues --    0.49695   0.49804   0.50095   0.50539   0.50941
 Alpha virt. eigenvalues --    0.51242   0.51604   0.51826   0.51960   0.52045
 Alpha virt. eigenvalues --    0.52704   0.52736   0.52930   0.53051   0.53647
 Alpha virt. eigenvalues --    0.53889   0.54083   0.54188   0.54460   0.54763
 Alpha virt. eigenvalues --    0.54922   0.55075   0.55405   0.55590   0.55912
 Alpha virt. eigenvalues --    0.56147   0.56217   0.56498   0.56601   0.56803
 Alpha virt. eigenvalues --    0.57107   0.57297   0.57655   0.57745   0.57819
 Alpha virt. eigenvalues --    0.58089   0.58355   0.58504   0.58541   0.58712
 Alpha virt. eigenvalues --    0.58800   0.58923   0.58968   0.59052   0.59166
 Alpha virt. eigenvalues --    0.59442   0.59582   0.59667   0.59956   0.60177
 Alpha virt. eigenvalues --    0.60318   0.60476   0.60632   0.60938   0.61190
 Alpha virt. eigenvalues --    0.61335   0.61656   0.61695   0.61964   0.62161
 Alpha virt. eigenvalues --    0.62382   0.62734   0.62849   0.63249   0.63440
 Alpha virt. eigenvalues --    0.63621   0.63889   0.64294   0.64453   0.64767
 Alpha virt. eigenvalues --    0.64870   0.65185   0.65407   0.65702   0.66162
 Alpha virt. eigenvalues --    0.66216   0.66580   0.66623   0.66782   0.67087
 Alpha virt. eigenvalues --    0.67245   0.67775   0.68002   0.68080   0.68516
 Alpha virt. eigenvalues --    0.68695   0.68847   0.69134   0.69376   0.69509
 Alpha virt. eigenvalues --    0.69880   0.69920   0.70388   0.70505   0.70780
 Alpha virt. eigenvalues --    0.71345   0.71592   0.72078   0.72214   0.72318
 Alpha virt. eigenvalues --    0.72547   0.73012   0.73120   0.73289   0.73540
 Alpha virt. eigenvalues --    0.73928   0.74376   0.74918   0.75007   0.75294
 Alpha virt. eigenvalues --    0.75639   0.75841   0.76257   0.76372   0.76611
 Alpha virt. eigenvalues --    0.76692   0.76868   0.77127   0.77298   0.77596
 Alpha virt. eigenvalues --    0.77822   0.78227   0.78479   0.78761   0.78812
 Alpha virt. eigenvalues --    0.79371   0.79535   0.79807   0.80143   0.80228
 Alpha virt. eigenvalues --    0.80900   0.81090   0.81378   0.81423   0.81574
 Alpha virt. eigenvalues --    0.81965   0.82213   0.82568   0.83026   0.83271
 Alpha virt. eigenvalues --    0.83400   0.83581   0.83661   0.84023   0.84131
 Alpha virt. eigenvalues --    0.84298   0.84453   0.84557   0.84701   0.84841
 Alpha virt. eigenvalues --    0.85219   0.85390   0.85604   0.85773   0.85858
 Alpha virt. eigenvalues --    0.86032   0.86255   0.86393   0.86844   0.87022
 Alpha virt. eigenvalues --    0.87071   0.87463   0.87787   0.87906   0.88022
 Alpha virt. eigenvalues --    0.88498   0.88622   0.88808   0.88943   0.89113
 Alpha virt. eigenvalues --    0.89494   0.89585   0.89767   0.89881   0.90033
 Alpha virt. eigenvalues --    0.90082   0.90468   0.90564   0.90721   0.90924
 Alpha virt. eigenvalues --    0.90962   0.91248   0.91390   0.91523   0.91667
 Alpha virt. eigenvalues --    0.92040   0.92260   0.92299   0.92519   0.92661
 Alpha virt. eigenvalues --    0.92821   0.93343   0.93821   0.93867   0.94429
 Alpha virt. eigenvalues --    0.94603   0.94902   0.95254   0.95346   0.95660
 Alpha virt. eigenvalues --    0.96017   0.96097   0.96252   0.96741   0.96898
 Alpha virt. eigenvalues --    0.97101   0.97519   0.97711   0.98069   0.98586
 Alpha virt. eigenvalues --    0.98856   0.99075   0.99414   0.99741   0.99989
 Alpha virt. eigenvalues --    1.00139   1.00875   1.01002   1.01239   1.01572
 Alpha virt. eigenvalues --    1.01850   1.02193   1.02414   1.02695   1.03554
 Alpha virt. eigenvalues --    1.04058   1.04260   1.04426   1.04674   1.05009
 Alpha virt. eigenvalues --    1.05139   1.05403   1.05703   1.06078   1.06242
 Alpha virt. eigenvalues --    1.06696   1.07037   1.07389   1.07833   1.08006
 Alpha virt. eigenvalues --    1.08259   1.09312   1.09631   1.10047   1.10343
 Alpha virt. eigenvalues --    1.10713   1.10760   1.11548   1.12454   1.13065
 Alpha virt. eigenvalues --    1.13418   1.13934   1.14413   1.15099   1.15315
 Alpha virt. eigenvalues --    1.15822   1.15852   1.16488   1.17092   1.17470
 Alpha virt. eigenvalues --    1.17891   1.18086   1.18876   1.19421   1.19585
 Alpha virt. eigenvalues --    1.20028   1.20225   1.20615   1.21252   1.22072
 Alpha virt. eigenvalues --    1.22432   1.22486   1.22662   1.23503   1.23667
 Alpha virt. eigenvalues --    1.24353   1.24833   1.25408   1.25658   1.25996
 Alpha virt. eigenvalues --    1.26131   1.26677   1.27000   1.27376   1.28092
 Alpha virt. eigenvalues --    1.28526   1.29018   1.29369   1.29677   1.30021
 Alpha virt. eigenvalues --    1.30391   1.31833   1.32039   1.32219   1.32508
 Alpha virt. eigenvalues --    1.32883   1.33348   1.33408   1.34057   1.34331
 Alpha virt. eigenvalues --    1.34628   1.35390   1.35869   1.36544   1.36674
 Alpha virt. eigenvalues --    1.37148   1.37872   1.38156   1.39035   1.39504
 Alpha virt. eigenvalues --    1.39686   1.40141   1.40459   1.40557   1.41000
 Alpha virt. eigenvalues --    1.41193   1.41959   1.42108   1.42630   1.43117
 Alpha virt. eigenvalues --    1.43773   1.44133   1.44319   1.44857   1.45096
 Alpha virt. eigenvalues --    1.45508   1.46140   1.46395   1.46436   1.46510
 Alpha virt. eigenvalues --    1.46726   1.47076   1.47607   1.47710   1.48266
 Alpha virt. eigenvalues --    1.48379   1.48927   1.49456   1.49587   1.49899
 Alpha virt. eigenvalues --    1.50319   1.50533   1.50806   1.50981   1.51428
 Alpha virt. eigenvalues --    1.51542   1.52693   1.53198   1.53356   1.53689
 Alpha virt. eigenvalues --    1.54495   1.55137   1.56121   1.56385   1.56660
 Alpha virt. eigenvalues --    1.57276   1.57770   1.58044   1.58902   1.59472
 Alpha virt. eigenvalues --    1.60161   1.61681   1.62329   1.62924   1.63526
 Alpha virt. eigenvalues --    1.64124   1.65348   1.65516   1.65798   1.66256
 Alpha virt. eigenvalues --    1.66722   1.67096   1.67985   1.68622   1.68925
 Alpha virt. eigenvalues --    1.69273   1.69675   1.70252   1.70860   1.71886
 Alpha virt. eigenvalues --    1.72409   1.72760   1.73177   1.73703   1.74493
 Alpha virt. eigenvalues --    1.74730   1.75798   1.75905   1.76886   1.77454
 Alpha virt. eigenvalues --    1.78030   1.78135   1.78423   1.78640   1.78973
 Alpha virt. eigenvalues --    1.79176   1.79566   1.80299   1.80691   1.80808
 Alpha virt. eigenvalues --    1.81210   1.81306   1.81502   1.81920   1.82117
 Alpha virt. eigenvalues --    1.82424   1.82722   1.82967   1.83018   1.83303
 Alpha virt. eigenvalues --    1.83745   1.84338   1.85058   1.85207   1.85682
 Alpha virt. eigenvalues --    1.86104   1.86272   1.86510   1.86609   1.87140
 Alpha virt. eigenvalues --    1.87602   1.87780   1.88572   1.88819   1.89282
 Alpha virt. eigenvalues --    1.89568   1.89833   1.90049   1.90215   1.90622
 Alpha virt. eigenvalues --    1.90771   1.91188   1.91687   1.91859   1.92266
 Alpha virt. eigenvalues --    1.92397   1.92458   1.92669   1.92722   1.92877
 Alpha virt. eigenvalues --    1.93147   1.93305   1.93368   1.93812   1.94012
 Alpha virt. eigenvalues --    1.94146   1.94257   1.94652   1.94717   1.95235
 Alpha virt. eigenvalues --    1.96106   1.96475   1.96559   1.96874   1.97616
 Alpha virt. eigenvalues --    1.97930   1.98712   1.98922   1.99372   1.99867
 Alpha virt. eigenvalues --    2.00250   2.00528   2.00702   2.01440   2.01826
 Alpha virt. eigenvalues --    2.02340   2.02569   2.03047   2.03297   2.03653
 Alpha virt. eigenvalues --    2.03884   2.04110   2.04660   2.05573   2.05947
 Alpha virt. eigenvalues --    2.06222   2.06240   2.06682   2.06795   2.07415
 Alpha virt. eigenvalues --    2.07779   2.07881   2.08078   2.08556   2.08795
 Alpha virt. eigenvalues --    2.08990   2.09362   2.09784   2.10111   2.10252
 Alpha virt. eigenvalues --    2.10843   2.10936   2.11208   2.11561   2.11845
 Alpha virt. eigenvalues --    2.12174   2.12377   2.13185   2.13249   2.13573
 Alpha virt. eigenvalues --    2.13981   2.14189   2.14747   2.14888   2.15006
 Alpha virt. eigenvalues --    2.15162   2.15531   2.15746   2.15895   2.16349
 Alpha virt. eigenvalues --    2.16600   2.16800   2.17060   2.17626   2.17845
 Alpha virt. eigenvalues --    2.18459   2.18976   2.19303   2.19893   2.19991
 Alpha virt. eigenvalues --    2.20293   2.20688   2.21043   2.21214   2.21681
 Alpha virt. eigenvalues --    2.21875   2.22217   2.22727   2.22998   2.23119
 Alpha virt. eigenvalues --    2.23831   2.24035   2.24471   2.24646   2.25163
 Alpha virt. eigenvalues --    2.25688   2.25947   2.26302   2.26644   2.27039
 Alpha virt. eigenvalues --    2.27184   2.27698   2.27828   2.28090   2.28208
 Alpha virt. eigenvalues --    2.28546   2.28781   2.29105   2.29378   2.29611
 Alpha virt. eigenvalues --    2.29928   2.30451   2.30932   2.31645   2.31799
 Alpha virt. eigenvalues --    2.31968   2.32236   2.32513   2.33007   2.33384
 Alpha virt. eigenvalues --    2.33756   2.33876   2.33985   2.34456   2.34648
 Alpha virt. eigenvalues --    2.35314   2.35669   2.37063   2.37665   2.38045
 Alpha virt. eigenvalues --    2.38805   2.39232   2.39909   2.40386   2.40714
 Alpha virt. eigenvalues --    2.41364   2.42019   2.43652   2.44160   2.45927
 Alpha virt. eigenvalues --    2.47009   2.47419   2.47615   2.48304   2.48403
 Alpha virt. eigenvalues --    2.48592   2.49322   2.49571   2.49962   2.50217
 Alpha virt. eigenvalues --    2.51144   2.52186   2.52752   2.53828   2.54418
 Alpha virt. eigenvalues --    2.55289   2.55805   2.56951   2.57758   2.58188
 Alpha virt. eigenvalues --    2.58773   2.59563   2.59942   2.60454   2.60556
 Alpha virt. eigenvalues --    2.60976   2.61260   2.61614   2.62488   2.63310
 Alpha virt. eigenvalues --    2.63726   2.64224   2.64339   2.65268   2.65409
 Alpha virt. eigenvalues --    2.65565   2.65910   2.66245   2.67423   2.67785
 Alpha virt. eigenvalues --    2.68708   2.69422   2.70564   2.71513   2.71572
 Alpha virt. eigenvalues --    2.73543   2.73625   2.74832   2.75588   2.76239
 Alpha virt. eigenvalues --    2.76468   2.77404   2.78262   2.78867   2.79224
 Alpha virt. eigenvalues --    2.80022   2.80516   2.80667   2.80798   2.81199
 Alpha virt. eigenvalues --    2.81689   2.81923   2.82032   2.82274   2.82772
 Alpha virt. eigenvalues --    2.83163   2.83436   2.84335   2.85852   2.86709
 Alpha virt. eigenvalues --    2.87971   2.88320   2.90274   2.90910   2.91972
 Alpha virt. eigenvalues --    2.92806   2.94094   2.94949   2.95335   2.95771
 Alpha virt. eigenvalues --    2.96331   2.97218   2.98400   2.98905   3.00276
 Alpha virt. eigenvalues --    3.02939   3.03649   3.04383   3.06037   3.08698
 Alpha virt. eigenvalues --    3.10191   3.11584   3.11911   3.12594   3.12781
 Alpha virt. eigenvalues --    3.13946   3.15702   3.16832   3.22840   3.27410
 Alpha virt. eigenvalues --    3.32123   3.32804   3.33436   3.42711   3.43705
 Alpha virt. eigenvalues --    3.46110  14.71005
          Condensed to atoms (all electrons):
 Mulliken charges:
               1
     1  C    0.297485
     2  C    0.004099
     3  C    0.344941
     4  C   -0.161265
     5  C   -0.196958
     6  C    0.303165
     7  C    0.049606
     8  C   -0.177548
     9  C   -0.137992
    10  C   -0.186393
    11  H    0.227639
    12  H    0.187213
    13  H    0.171975
    14  H    0.242055
    15  H    0.181156
    16  H    0.169461
    17  N   -0.468781
    18  N   -0.501555
    19  Ir  -0.235399
    20  O   -0.507032
    21  O   -0.524940
    22  O   -0.502622
    23  B    0.520210
    24  B    0.509778
    25  B    0.516158
    26  O   -0.517722
    27  O   -0.547590
    28  C    0.305083
    29  C    0.286964
    30  C    0.289726
    31  C    0.296469
    32  C    0.294105
    33  C    0.298402
    34  O   -0.524285
    35  C   -0.511778
    36  H    0.145781
    37  H    0.167112
    38  H    0.169583
    39  C   -0.496974
    40  H    0.156535
    41  H    0.136818
    42  H    0.185819
    43  C   -0.510878
    44  H    0.159266
    45  H    0.152061
    46  H    0.175046
    47  C   -0.507931
    48  H    0.148393
    49  H    0.158261
    50  H    0.176023
    51  C   -0.502201
    52  H    0.163081
    53  H    0.145910
    54  H    0.187489
    55  C   -0.505475
    56  H    0.153162
    57  H    0.164980
    58  H    0.161416
    59  C   -0.515130
    60  H    0.150516
    61  H    0.171307
    62  H    0.175496
    63  C   -0.516897
    64  H    0.167316
    65  H    0.150039
    66  H    0.183110
    67  C   -0.508129
    68  H    0.170127
    69  H    0.167271
    70  H    0.150326
    71  C   -0.500634
    72  H    0.164942
    73  H    0.152003
    74  H    0.156334
    75  C   -0.508019
    76  H    0.149068
    77  H    0.167454
    78  H    0.165835
    79  C   -0.498944
    80  H    0.163094
    81  H    0.145249
    82  H    0.177136
    83  H    0.261337
    84  C   -0.132934
    85  C   -0.183413
    86  C   -0.157186
    87  C    0.095579
    88  H    0.123538
    89  C   -0.150124
    90  H    0.142599
    91  C   -0.206735
    92  H    0.146779
    93  H    0.139871
    94  H    0.182319
    95  C    0.083471
    96  C   -0.197597
    97  C   -0.177069
    98  C   -0.180040
    99  C   -0.171808
   100  H    0.145189
   101  C    0.026828
   102  H    0.161474
   103  H    0.170362
   104  C    0.319656
   105  C   -0.210791
   106  C   -0.186389
   107  C   -0.192146
   108  H    0.165641
   109  C   -0.242095
   110  H    0.167560
   111  C    0.350782
   112  H    0.209322
   113  H    0.163498
   114  H    0.165173
   115  N   -0.771898
   116  C    0.762255
   117  H    0.383494
   118  O   -0.532270
   119  N   -0.659102
   120  H    0.359655
   121  C    0.514941
   122  O   -0.531048
   123  C   -0.359756
   124  H    0.166754
   125  H    0.216166
   126  H    0.160274
   127  O   -0.594955
   128  C   -0.383074
   129  H    0.204341
   130  H    0.183468
   131  H    0.184601
   132  C   -0.372951
   133  H    0.209537
   134  H    0.181159
   135  H    0.179183
   136  N   -0.389404
 Sum of Mulliken charges =  -0.00000
 Mulliken charges with hydrogens summed into heavy atoms:
               1
     1  C    0.297485
     2  C    0.231738
     3  C    0.344941
     4  C    0.025949
     5  C   -0.024983
     6  C    0.303165
     7  C    0.291662
     8  C    0.004771
     9  C    0.043165
    10  C   -0.016932
    17  N   -0.468781
    18  N   -0.501555
    19  Ir  -0.235399
    20  O   -0.507032
    21  O   -0.524940
    22  O   -0.502622
    23  B    0.520210
    24  B    0.509778
    25  B    0.516158
    26  O   -0.517722
    27  O   -0.547590
    28  C    0.305083
    29  C    0.286964
    30  C    0.289726
    31  C    0.296469
    32  C    0.294105
    33  C    0.298402
    34  O   -0.524285
    35  C   -0.029301
    39  C   -0.017802
    43  C   -0.024505
    47  C   -0.025254
    51  C   -0.005721
    55  C   -0.025917
    59  C   -0.017812
    63  C   -0.016432
    67  C   -0.020405
    71  C   -0.027355
    75  C   -0.025662
    79  C   -0.013465
    84  C    0.128403
    85  C   -0.059875
    86  C   -0.014587
    87  C    0.095579
    89  C   -0.003345
    91  C   -0.066864
    95  C    0.083471
    96  C   -0.032424
    97  C   -0.031880
    98  C   -0.018566
    99  C   -0.001446
   101  C    0.026828
   104  C    0.319656
   105  C   -0.045150
   106  C   -0.018829
   107  C    0.017176
   109  C   -0.078596
   111  C    0.350782
   115  N   -0.388404
   116  C    0.762255
   118  O   -0.532270
   119  N   -0.299447
   121  C    0.514941
   122  O   -0.531048
   123  C    0.183438
   127  O   -0.594955
   128  C    0.189335
   132  C    0.196928
   136  N   -0.389404
 APT charges:
               1
     1  C    0.060308
     2  C   -0.103683
     3  C    0.722391
     4  C   -0.027913
     5  C   -0.058263
     6  C    0.279629
     7  C    0.056070
     8  C   -0.097587
     9  C    0.152178
    10  C   -0.213019
    11  H    0.148388
    12  H    0.063217
    13  H    0.030972
    14  H    0.156321
    15  H    0.027399
    16  H    0.041431
    17  N   -0.157880
    18  N   -0.174794
    19  Ir  -1.121283
    20  O   -0.980217
    21  O   -1.017383
    22  O   -0.976221
    23  B    1.362393
    24  B    1.316341
    25  B    1.279083
    26  O   -0.956853
    27  O   -1.061672
    28  C    0.534458
    29  C    0.496818
    30  C    0.473175
    31  C    0.462571
    32  C    0.490377
    33  C    0.495893
    34  O   -0.992724
    35  C    0.001209
    36  H   -0.023816
    37  H   -0.004267
    38  H   -0.000534
    39  C   -0.035814
    40  H    0.001022
    41  H   -0.037003
    42  H    0.031434
    43  C   -0.037370
    44  H    0.000708
    45  H   -0.030913
    46  H    0.008846
    47  C   -0.014805
    48  H   -0.022404
    49  H   -0.006631
    50  H    0.006496
    51  C   -0.022699
    52  H   -0.009277
    53  H   -0.029197
    54  H    0.013791
    55  C   -0.012023
    56  H   -0.018117
    57  H   -0.000113
    58  H    0.002424
    59  C   -0.006694
    60  H   -0.017853
    61  H   -0.001539
    62  H    0.005601
    63  C   -0.036215
    64  H    0.005301
    65  H   -0.022884
    66  H    0.025471
    67  C   -0.002159
    68  H    0.001958
    69  H    0.000824
    70  H   -0.021238
    71  C   -0.029870
    72  H   -0.008473
    73  H   -0.023065
    74  H   -0.002194
    75  C   -0.007370
    76  H   -0.017515
    77  H    0.002176
    78  H   -0.000308
    79  C   -0.037239
    80  H    0.004779
    81  H   -0.029666
    82  H    0.031064
    83  H    0.331560
    84  C    0.240421
    85  C   -0.139994
    86  C   -0.156224
    87  C   -0.016437
    88  H    0.033280
    89  C    0.008284
    90  H    0.043401
    91  C   -0.121995
    92  H   -0.017484
    93  H    0.015624
    94  H    0.035252
    95  C    0.316140
    96  C   -0.187345
    97  C   -0.173742
    98  C    0.068721
    99  C    0.092783
   100  H    0.020345
   101  C   -0.338471
   102  H    0.013465
   103  H    0.046745
   104  C    0.540733
   105  C    0.014060
   106  C   -0.042695
   107  C   -0.159164
   108  H    0.045849
   109  C   -0.159330
   110  H    0.041394
   111  C    0.630852
   112  H    0.119102
   113  H    0.036687
   114  H    0.042912
   115  N   -1.189238
   116  C    1.636180
   117  H    0.314373
   118  O   -0.847534
   119  N   -0.940021
   120  H    0.277307
   121  C    1.463261
   122  O   -1.046976
   123  C    0.401594
   124  H   -0.063720
   125  H    0.077000
   126  H   -0.071679
   127  O   -1.190355
   128  C    0.292536
   129  H    0.038664
   130  H   -0.028799
   131  H   -0.041336
   132  C    0.322688
   133  H    0.043543
   134  H   -0.044621
   135  H   -0.019154
   136  N   -0.892207
 Sum of APT charges =   0.00000
 APT charges with hydrogens summed into heavy atoms:
               1
     1  C    0.060308
     2  C    0.044704
     3  C    0.722391
     4  C    0.035304
     5  C   -0.027292
     6  C    0.279629
     7  C    0.212392
     8  C   -0.062334
     9  C    0.179578
    10  C   -0.171588
    17  N   -0.157880
    18  N   -0.174794
    19  Ir  -1.121283
    20  O   -0.980217
    21  O   -1.017383
    22  O   -0.976221
    23  B    1.362393
    24  B    1.316341
    25  B    1.279083
    26  O   -0.956853
    27  O   -1.061672
    28  C    0.534458
    29  C    0.496818
    30  C    0.473175
    31  C    0.462571
    32  C    0.490377
    33  C    0.495893
    34  O   -0.992724
    35  C   -0.027408
    39  C   -0.040361
    43  C   -0.058728
    47  C   -0.037345
    51  C   -0.047382
    55  C   -0.027828
    59  C   -0.020485
    63  C   -0.028327
    67  C   -0.020614
    71  C   -0.063603
    75  C   -0.023017
    79  C   -0.031062
    84  C    0.571981
    85  C   -0.106715
    86  C   -0.112823
    87  C   -0.016437
    89  C   -0.009201
    91  C   -0.106372
    95  C    0.316140
    96  C   -0.144433
    97  C   -0.153398
    98  C    0.082186
    99  C    0.139528
   101  C   -0.338471
   104  C    0.540733
   105  C    0.059910
   106  C   -0.001301
   107  C   -0.040063
   109  C   -0.122643
   111  C    0.630852
   115  N   -0.874865
   116  C    1.636180
   118  O   -0.847534
   119  N   -0.662713
   121  C    1.463261
   122  O   -1.046976
   123  C    0.343196
   127  O   -1.190355
   128  C    0.261066
   132  C    0.302456
   136  N   -0.892207
 Electronic spatial extent (au):  <R**2>=          63716.0126
 Charge=             -0.0000 electrons
 Dipole moment (field-independent basis, Debye):
    X=             -1.7277    Y=              6.3077    Z=              5.6864  Tot=              8.6665
 Quadrupole moment (field-independent basis, Debye-Ang):
   XX=           -386.0706   YY=           -409.1958   ZZ=           -390.7036
   XY=            -61.8633   XZ=              2.7531   YZ=              1.9030
 Traceless Quadrupole moment (field-independent basis, Debye-Ang):
   XX=              9.2527   YY=            -13.8724   ZZ=              4.6197
   XY=            -61.8633   XZ=              2.7531   YZ=              1.9030
 Octapole moment (field-independent basis, Debye-Ang**2):
  XXX=            -92.0077  YYY=            182.8269  ZZZ=            126.7938  XYY=            109.4281
  XXY=            547.7511  XXZ=              8.6568  XZZ=            132.3803  YZZ=              0.9571
  YYZ=              6.7254  XYZ=             28.3571
 Hexadecapole moment (field-independent basis, Debye-Ang**3):
 XXXX=         -53684.9474 YYYY=         -15899.1143 ZZZZ=          -8951.5725 XXXY=          -4293.2238
 XXXZ=             81.7661 YYYX=           -886.5364 YYYZ=            -66.8561 ZZZX=            104.1827
 ZZZY=            224.4769 XXYY=         -12194.1057 XXZZ=         -11385.6107 YYZZ=          -4223.5132
 XXYZ=            -13.9984 YYXZ=             72.4259 ZZXY=             47.9795
 N-N= 1.216706286331D+04 E-N=-3.155705466189D+04  KE= 3.021351126896D+03
  Exact polarizability:     916.134      27.957     648.810       7.303      -7.206     547.670
 Approx polarizability:    1135.113      79.607     994.615       9.344     -19.805     847.171
   1 Symmetry operations used in ECPInt.
 ECPInt:  NShTT=   85905 NPrTT=  534464 LenC2=   52419 LenP2D=  157551.
 LDataN:  DoStor=T MaxTD1= 8 Len=  415
[...]
 ,0.00004119,-0.00002672,0.00001987,-0.00003836,-0.00005045,-0.00004816
 ,0.00009879,0.00002434,0.00005603,-0.00003727,-0.00002886,-0.00002121,
 -0.00001779,0.00001876,0.00004910,0.00003538,0.00000649,0.00010068,0.0
 0004074,0.00001586,-0.00002163,-0.00002648,0.00000390,0.00003011,0.000
 04017,0.00004082,0.00003066,-0.00005229,-0.00003447,-0.00007795,0.0000
 4492,-0.00002451,-0.00003512,0.00001902,-0.00001860,0.00003441,0.00000
 648,-0.00001619,-0.00000523,0.00003117,-0.00000824,0.00000263,0.000003
 70,-0.00000459,-0.00001812,0.00001518,0.00000370,0.00001230,-0.0000559
 1,0.00000013,0.00001259,0.00004474,-0.00004971,-0.00005460,-0.00055430
 ,0.00046224,0.00014014,-0.00028922,-0.00009554,0.00016155,-0.00019999,
 0.00018876,0.00022644,-0.00029306,0.00017834,-0.00011328,0.00028082,-0
 .00033931,-0.00034358,0.00045969,0.00012712,-0.00017025,0.00037192,-0.
 00030657,0.00007421,-0.00019338,0.00026210,-0.00013279,-0.00031476,-0.
 00012231,0.00005118,0.00014022,0.00006560,-0.00007912,0.00016234,0.000
 04651,-0.00001700,0.00007811,-0.00011066,0.00003138,0.00009856,-0.0000
 5982,0.00008661,0.00001199,-0.00006329,-0.00011555,0.00007126,-0.00013
 726,-0.00009678,-0.00009555,0.00021582,0.00021626,-0.00000698,-0.00000
 467,0.00001029,-0.00002044,-0.00001081,-0.00000090,0.00000576,0.000009
 91,0.00000809,0.00000732,0.00000602,-0.00000926,-0.00001670,0.00000230
 ,0.00000273,0.00001005,0.00000697,0.00000134,-0.00002958,-0.00000426,-
 0.00000116,0.00001383,-0.00000411,0.00000091,0.00000297,-0.00001374,0.
 00003314,0.00002251,0.00001516,0.00000911,-0.00003494,-0.00001210,0.00
 001306,0.00000389,0.00000802,-0.00004477,-0.00001351,0.00000292,0.0000
 0186,-0.00001986,-0.00000888,0.00001042,0.00000910,-0.00000143,-0.0000
 0816,0.00000272,0.00000774,-0.00000380,0.00000272,-0.00000434,0.000013
 03,-0.00000754,-0.00000633,-0.00000814,0.00000345,0.00000973,0.0000218
 1,-0.00000153,0.00000881,-0.00001331,-0.00000938,0.00000042,0.00000797
 ,0.00000347,0.00001176,0.00001355,-0.00001256,-0.00000687,-0.00000463,
 0.00000499,-0.00000126,-0.00000560,0.00000891,0.00001473,0.00001171,-0
 .00001566,0.00001817,0.00001490,0.00000023,-0.00001751,-0.00000704,0.0
 0000811,-0.00000503,-0.00001218,0.00000762,0.00002151,0.00000472,-0.00
 000594,-0.00001705,-0.00001020,-0.00001336,0.00002272,0.00001395,0.000
 00732,-0.00001237,-0.00000124,-0.00000630,0.00000981,-0.00000702,0.000
 00941,-0.00000378,0.00000469,0.00000459,-0.00000347,0.00000519,-0.0000
 1768,0.00001202,-0.00001046,-0.00000481,0.00000177,-0.00001202,-0.0000
 0013,-0.00001382,0.00000905,-0.00001932,0.00001164,-0.00001702,0.00001
 140,0.00000725,0.00001086,-0.00000997,0.00000569,-0.00000412,-0.000009
 04,0.00001679,-0.00000938,-0.00000398,-0.00001153,0.00000522,0.0000077
 3,-0.00000346,0.00000507,-0.00000913,0.00001730,-0.00000177,0.00000126
 ,-0.00001096,0.00000427,-0.00001269,0.00002228,-0.00000053,0.00000743,
 -0.00001298,-0.00000491,0.00025744,-0.00028049,-0.00016218,0.00012243,
 -0.00032144,0.00011983,-0.00019423,-0.00022805,0.00014784,-0.00030025,
 0.00001805,0.00001775,-0.00020018,-0.00002789,0.00013465,0.00009289,-0
 .00008746,-0.00000628,-0.00011837,0.00014704,0.00005492,-0.00002747,-0
 .00002682,-0.00000565,-0.00025682,0.00037907,-0.00016290,-0.00008579,-
 0.00006702,0.00000707,0.00008098,0.00008101,0.00002367,-0.00000661,-0.
 00001285,-0.00000502,0.00132203,-0.00036476,0.00060550,-0.00213487,-0.
 00009325,-0.00131097,-0.00082435,0.00053970,-0.00135271,0.00125031,0.0
 0348861,-0.00131981,-0.00380643,-0.00459211,0.00124044,-0.00068861,-0.
 00000139,-0.00015056,-0.02921098,0.02684998,0.00156117,-0.00029693,-0.
 00026571,0.00112532,0.00027772,0.00035435,0.00054148,0.00029796,-0.000
 00585,-0.00002892,-0.00015474,0.00003691,-0.00004566,0.00017336,0.0000
 7339,0.00005426,0.00007033,-0.00008492,0.00004918,-0.00002365,0.000026
 30,-0.00001823,-0.00002843,-0.00005378,0.00034200,0.00005508,-0.000063
 47,-0.00004789,-0.00008815,0.00016034,-0.00013633,-0.00005106,0.000023
 86,-0.00001117,0.00001131,-0.00003571,-0.00027226,-0.00030806,-0.00017
 921,0.00001602,0.00110095,0.00073698,-0.00020354,-0.00222294,-0.000274
 58,0.00070634,0.00000503,-0.00166989,-0.00018068,0.00065063,0.00035352
 ,-0.00038390,0.00156148,-0.00019483,-0.00016857,-0.00151256,-0.0006668
 8,0.00026152,-0.23481910,0.10395948,0.00468647,0.02444037,0.01632584,0
 .00646664,-0.00087999,0.00001416,0.00047859,0.00026075,0.00009311,0.00
 007406,0.00005296,0.00003507,-0.00009139,0.00015090,0.00000563,-0.0003
 5974,-0.00027714,0.00006081,-0.00007589,-0.10950179,-0.02548599,-0.023
 44939,-0.00443932,-0.03063992,-0.01702666,0.00113535,0.00611587,0.0034
 6299,0.00594291,0.02068288,0.01013044,-0.21992572,-0.02113417,-0.01475
 852,-0.00797434,-0.00386345,-0.00377201,-0.03420653,-0.00682336,-0.001
 38734,-0.02743206,-0.00475897,-0.00614070,0.64289046,-0.00001913,0.000
 04748,0.00004187,0.00014901,0.00009513,0.00001637,-0.00056751,-0.00061
 358,-0.00042407,0.00001518,0.00006584,0.00011548,0.00002533,-0.0000087
 1,-0.00005127,-0.00008879,-0.00010515,-0.00014759,-0.00001655,-0.00000
 191,0.00004811,0.00004333,0.00003035,-0.00004095,-0.00005198,-0.000048
 14,-0.00004077,0.00005425,0.00007004,0.00010792,-0.00006849,-0.0000009
 6,0.00005114,-0.00002772,0.00001521,-0.00008071,0.00000327,-0.00000088
 ,0.00002126,-0.00001401,-0.00000048,0.00000551,0.00000231,-0.00000187,
 0.00001893,-0.00000619,-0.00001290,-0.00002110,0.00006271,0.00002408,-
 0.00004088,0.00002011,0.00004789,0.00003745,0.00020379,-0.00009107,-0.
 00003548,0.00018810,0.00009369,-0.00010022,0.00014034,-0.00005560,-0.0
 0008623,0.00017267,-0.00005700,0.00005595,-0.00021114,0.00004393,0.000
 07719,-0.00029491,-0.00013832,0.00010277,-0.00023090,0.00007086,-0.000
 04161,0.00012943,-0.00007637,0.00006320,0.00021678,0.00013582,-0.00003
 367,-0.00008604,-0.00007154,0.00005785,-0.00009966,-0.00004186,0.00000
 550,-0.00004931,0.00004646,-0.00001636,-0.00006251,0.00002975,-0.00004
 901,-0.00003469,0.00001365,0.00005437,-0.00003976,0.00004005,0.0000401
 1,0.00013609,-0.00001778,-0.00006096,0.00000781,-0.00000046,-0.0000083
 4,0.00001438,0.00000697,-0.00000003,-0.00000480,-0.00000429,-0.0000014
 0,-0.00000749,-0.00000038,0.00000265,0.00000998,0.00000129,-0.00000227
 ,-0.00000875,-0.00000224,0.00000505,0.00001898,0.00000365,0.00000067,-
 0.00000991,0.00000047,-0.00000247,0.00000054,0.00001561,-0.00001770,-0
 .00001056,-0.00000782,0.00000343,0.00002047,0.00000966,-0.00000995,-0.
 00000317,-0.00001014,0.00001823,0.00000894,0.00000372,-0.00000408,0.00
 001392,0.00000442,-0.00000684,-0.00000497,0.00000087,0.00000935,-0.000
 00568,-0.00000127,-0.00000021,0.00000599,0.00000548,-0.00000579,0.0000
 1485,0.00000619,0.00000349,-0.00000485,-0.00000476,-0.00000812,-0.0000
 0480,-0.00000922,0.00000653,0.00000903,0.00000399,-0.00000314,-0.00000
 522,-0.00000563,-0.00000351,0.00001419,0.00000611,0.00000129,-0.000007
 99,0.00000168,-0.00000072,-0.00002244,-0.00001371,0.00000030,0.0000117
 0,-0.00001121,-0.00000606,0.00001162,0.00001724,0.00000286,-0.00000710
 ,0.00000496,0.00000421,-0.00002694,-0.00000879,-0.00000009,0.00001482,
 0.00001233,0.00000817,0.00000746,-0.00000852,-0.00001073,-0.00000513,0
 .00000458,0.00000134,-0.00000109,-0.00000786,0.00000341,-0.00000125,0.
 00000628,-0.00000825,-0.00000646,0.00000095,-0.00000101,0.00001204,-0.
 00000532,0.00000792,-0.00000776,-0.00000338,0.00000779,0.00000810,0.00
 001068,-0.00000782,0.00001358,-0.00000830,0.00000859,-0.00000847,-0.00
 000205,-0.00000549,0.00000637,0.00000016,0.00000240,0.00000290,-0.0000
 0890,0.00000430,0.00000647,0.00000749,-0.00000483,-0.00000667,0.000000
 34,-0.00000150,0.00000347,-0.00000698,0.00000002,0.00000354,0.00000786
 ,-0.00000323,0.00000452,-0.00001132,0.00000026,-0.00000432,0.00000563,
 0.00000417,-0.00007634,0.00006250,0.00004876,0.00001072,0.00014529,0.0
 0003006,-0.00006816,0.00010131,-0.00008709,0.00011498,-0.00000415,-0.0
 0001089,0.00022786,0.00016385,-0.00000048,-0.00003342,0.00005359,-0.00
 000817,0.00005633,-0.00004563,-0.00004499,0.00001101,0.00001083,0.0000
 0568,0.00016868,-0.00025909,0.00009418,0.00005492,0.00004749,0.0000003
 6,-0.00005183,0.00000610,-0.00000233,0.00001239,0.00000550,0.00000445,
 -0.00075790,-0.00008090,-0.00016191,0.00134341,0.00015618,-0.00020561,
 0.00047529,0.00107651,-0.00070898,-0.00052740,-0.00334398,0.00035582,-
 0.00331125,0.00116925,-0.00023578,-0.00001528,-0.00005969,-0.00002288,
 0.00796610,0.00657595,0.00143235,-0.00002389,0.00068673,-0.00023915,-0
 .00041615,0.00016841,-0.00052518,-0.00075207,0.00006880,-0.00001104,0.
 00000322,0.00001491,0.00008984,-0.00019460,-0.00012496,0.00010384,0.00
 048561,-0.00031201,0.00012849,0.00005666,-0.00006477,0.00003735,0.0005
 3178,0.00045757,-0.00045848,0.00004714,0.00004505,-0.00004338,-0.00257
 744,0.00039771,0.00015224,-0.00007611,0.00004965,-0.00003390,-0.000332
 12,-0.00005456,0.00022535,0.00023755,0.00008112,-0.00001254,0.00081160
 ,-0.00278430,0.00036448,0.00129161,0.00168338,-0.00104704,-0.00073772,
 0.00558710,-0.00001376,-0.00047179,-0.00160402,0.00098170,-0.00108546,
 -0.00080638,0.00035925,0.00215332,0.00179656,-0.00059397,0.10038593,-0
 .20226245,-0.03643237,0.02253108,-0.09725650,-0.03035896,0.00119888,-0
 .00024574,-0.00049901,-0.00022542,0.00004981,-0.00004027,-0.00009170,-
 0.00010204,0.00010994,-0.00017368,0.00010927,0.00022602,0.00132903,0.0
 0022817,0.00038177,-0.00869447,-0.18273346,-0.08328110,-0.00234621,-0.
 00295771,-0.00171810,-0.00615488,-0.03288297,-0.02283729,-0.00108274,-
 0.01316465,-0.01465561,-0.02751424,-0.10207096,-0.01815024,-0.02329296
 ,-0.00565025,-0.00201093,-0.01209954,-0.00062630,-0.00683237,0.0305181
 6,0.00835916,0.00406385,-0.07850174,0.62060754,0.00000174,0.00000717,0
 .00001171,0.00003399,0.00001809,-0.00000341,-0.00011812,-0.00013727,-0
 .00009211,-0.00000156,0.00001529,0.00002089,0.00000176,0.00000340,-0.0
 0001068,-0.00001312,-0.00002369,-0.00002375,0.00000109,-0.00000030,0.0
 0000659,0.00000599,0.00000918,-0.00000103,-0.00000788,-0.00000486,-0.0
 0000616,0.00000638,0.00001745,0.00001505,-0.00000707,-0.00000185,0.000
 00139,-0.00000246,-0.00000470,-0.00001562,0.00000641,-0.00000387,0.000
 00916,0.00000411,-0.00000029,-0.00000360,0.00000392,-0.00000158,0.0000
 0451,0.00000141,-0.00000792,-0.00000159,0.00000211,0.00000113,-0.00000
 320,0.00000432,0.00000340,0.00000814,-0.00002968,0.00004230,0.00002583
 ,-0.00000456,0.00000280,0.00001649,0.00000226,0.00002170,0.00003119,-0
 .00000351,0.00000990,0.00000307,-0.00000739,-0.00004763,-0.00005764,0.
 00000632,-0.00001082,-0.00002262,0.00000527,-0.00002162,-0.00000988,0.
 00000115,0.00001381,0.00000484,-0.00000259,0.00000973,0.00001356,0.000
 00356,-0.00000212,-0.00000331,0.00000258,-0.00000101,-0.00000502,0.000
 00119,-0.00000424,-0.00000234,-0.00000067,-0.00000132,-0.00000497,-0.0
 0000822,-0.00000738,-0.00001442,0.00000104,-0.00001434,-0.00001683,0.0
 0001997,0.00003288,0.00004108,-0.00000035,-0.00000012,0.,0.00000061,-0
 .00000020,0.00000016,-0.00000107,0.00000190,0.00000182,-0.00000011,-0.
 00000092,-0.00000173,-0.00000075,-0.00000079,0.00000027,-0.00000060,0.
 00000140,0.00000181,-0.00000005,0.00000046,-0.00000034,0.00000033,-0.0
 0000080,-0.00000022,-0.00000022,-0.00000023,-0.00000080,0.00000103,0.0
 0000122,0.00000331,-0.00000164,-0.00000027,-0.00000025,0.00000115,-0.0
 0000036,-0.00000261,-0.00000005,-0.00000003,-0.00000061,-0.00000057,-0
 .00000062,0.00000022,0.00000022,0.00000134,0.00000161,-0.00000018,0.00
 000008,-0.00000086,-0.00000033,-0.00000035,0.00000193,0.00000317,0.000
 00035,-0.00000052,-0.00000130,0.00000188,0.00000331,-0.00000104,-0.000
 00154,-0.00000235,0.00000053,0.00000089,0.00000139,-0.00000084,0.00000
 149,0.00000202,0.00000156,0.00000069,-0.00000105,-0.00000106,-0.000001
 35,-0.00000016,-0.00000268,0.00000093,0.00000292,0.00000053,0.00000025
 ,0.00000144,0.00000346,0.00000351,-0.00000264,-0.00000302,-0.00000243,
 0.00000058,-0.00000369,0.00000209,0.00000383,0.00000162,-0.00000033,-0
 .00000183,-0.00000114,0.00000195,-0.00000037,0.00000141,-0.00000156,0.
 00000081,-0.00000039,-0.00000028,0.,0.00000037,0.00000029,-0.00000158,
 -0.00000119,0.00000028,0.00000169,0.00000063,0.00000034,0.00000025,-0.
 00000231,-0.00000015,0.00000155,0.00000038,-0.00000055,-0.00000097,0.0
 0000090,-0.00000042,0.00000003,0.00000034,0.00000138,-0.00000006,0.000
 00034,0.00000073,-0.00000016,-0.00000024,0.00000016,-0.00000042,0.0000
 0038,-0.00000022,-0.00000032,-0.00000056,0.00000035,0.00000133,-0.0000
 0105,0.00000027,0.00000047,-0.00000003,-0.00000005,-0.00000018,-0.0000
 0061,0.00000050,0.00000002,0.00000041,0.00000016,-0.00000021,0.0000134
 7,-0.00001758,-0.00001267,0.00002301,-0.00001811,0.00001728,0.00001732
 ,-0.00002586,0.00000733,-0.00000581,-0.00001782,0.00000070,-0.00007232
 ,-0.00009095,0.00000219,-0.00000092,0.00001572,-0.00000945,-0.00003655
 ,0.00002429,0.00002089,-0.00000013,0.00000089,-0.00000670,0.00003113,0
 .00002329,0.00000987,0.00000167,0.00000228,-0.00000217,-0.00000154,0.0
 0001880,-0.00002365,0.00000310,-0.00000101,0.00000024,0.00040359,-0.00
 022569,0.00035996,-0.00058558,-0.00059750,0.00025203,0.00020394,-0.000
 14266,-0.00045957,0.00007643,0.00152383,-0.00091380,-0.00092853,0.0006
 2236,0.00043944,-0.00003750,-0.00001966,-0.00008094,-0.00172081,0.0000
 6558,0.00849701,0.00019329,-0.00067013,0.00008390,-0.00010873,0.000035
 67,0.00006996,-0.00012926,0.00001617,-0.00001114,-0.00001480,0.0000008
 8,0.00003009,-0.00001156,-0.00000616,0.00002729,0.00012617,-0.00007123
 ,0.00003808,0.00001161,-0.00001378,0.00000371,0.00009513,0.00010264,-0
 .00001747,0.00000878,0.00000434,-0.00001572,-0.00061254,0.00006181,0.0
 0000989,-0.00001678,0.00000430,-0.00001576,-0.00004932,-0.00001463,-0.
 00000444,-0.00011866,-0.00006661,-0.00014003,0.00019417,-0.00080932,0.
 00003213,0.00043172,0.00020145,-0.00032076,-0.00011247,0.00108072,0.00
 036554,-0.00012201,-0.00026557,0.00024511,-0.00006638,0.00003478,0.000
 26960,0.00005576,0.00015722,-0.00038381,0.01147131,-0.05019275,-0.0675
 3914,0.00917990,-0.02764436,0.01363864,0.00014102,-0.00005275,-0.00019
 750,0.00000013,0.00002372,0.00001414,-0.00000280,-0.00000632,0.0000264
 9,-0.00005320,0.00002515,0.00007941,0.00024716,0.00006161,0.00008230,-
 0.01471574,-0.07225146,-0.10380122,-0.00123872,-0.01005093,-0.00728649
 ,0.00220013,0.00187161,0.01306202,-0.00696149,-0.02990930,-0.01446237,
 -0.02606679,-0.01828014,-0.07572162,-0.02748588,-0.00311442,-0.0022263
 5,0.02275219,0.00019585,0.01283801,-0.00720896,-0.00397601,-0.00109688
 ,0.04070161,0.21245508,0.22429857\\-0.00000049,-0.00000461,-0.00000491
 ,-0.00000103,-0.00000306,-0.00000321,-0.00000191,0.00000017,-0.0000031
 5,0.00000448,0.00000112,-0.00000169,0.00000028,0.00000229,0.00000248,-
 0.00000096,0.00000131,0.00001024,0.00000196,0.00000128,0.00000816,0.00
 000031,0.00000203,-0.00000097,0.00000256,-0.00000066,0.00000045,0.0000
 0060,-0.00000073,-0.00001097,-0.00000080,-0.00000013,0.00000200,-0.000
 00304,-0.00000252,0.00000072,-0.00000021,-0.00000144,-0.00000184,0.000
 00078,0.00000105,-0.00000009,-0.00000085,-0.00000090,0.00000271,-0.000
 00318,-0.00000303,0.00000268,0.00000167,0.00000342,0.00000398,-0.00000
 352,-0.00000465,-0.00000639,-0.00000121,0.00000315,0.00000162,-0.00000
 328,-0.00000147,-0.00000343,0.00000071,0.00000260,0.00000438,0.0000028
 8,0.00000060,0.00000137,0.00000293,-0.00000030,-0.00000087,0.00000033,
 -0.00000069,0.00000465,-0.00000218,0.00000175,-0.00000253,-0.00000153,
 0.00000054,-0.00000071,-0.00000302,-0.00000022,0.00000219,0.00000394,-
 0.00000008,-0.00000472,0.00000311,0.00000559,0.00000348,-0.00000152,0.
 00000068,-0.00000294,0.00000378,-0.00000439,0.00000152,-0.00000700,0.0
 0000554,-0.00000693,0.00000530,0.00000228,0.00000395,0.00000038,-0.000
 00365,-0.00000360,0.00000156,-0.00000061,0.00000115,-0.00000012,0.0000
 0055,0.00000125,0.00000016,0.00000198,0.00000171,-0.00000116,0.0000016
 6,0.00000102,0.00000117,0.00000075,0.00000160,0.00000010,-0.00000025,0
 .00000027,-0.00000168,0.00000070,0.00000107,0.00000045,0.00000009,-0.0
 0000034,-0.00000029,-0.00000333,0.00000184,-0.00000076,0.00000203,0.00
 000268,0.00000053,0.00000111,0.00000141,-0.00000059,0.00000078,0.00000
 130,-0.00000520,0.00000434,0.00000538,0.00000154,0.00000103,0.00000003
 ,0.00000062,-0.00000077,-0.00000021,0.00000088,-0.00000264,0.00000105,
 -0.00000068,0.00000107,0.00000197,-0.00000060,0.00000052,-0.00000051,0
 .00000124,0.00000124,-0.00000009,0.00000164,0.00000052,0.00000061,0.00
 000339,-0.00000340,0.00000313,-0.00000038,0.00000082,-0.00000209,0.000
 00131,0.00000158,0.00000012,0.00000088,0.00000092,-0.00000095,-0.00000
 370,-0.00000083,0.00000267,0.00000172,0.00000059,-0.00000166,0.0000017
 6,0.00000190,-0.00000186,0.00000018,0.00000270,-0.00000207,-0.00000218
 ,0.00000147,-0.00000465,-0.00000050,0.00000021,-0.00000049,0.00000099,
 0.00000115,-0.00000088,0.00000190,0.00000085,0.00000241,0.00000151,0.0
 0000092,-0.00000281,0.00000006,0.00000001,-0.00000088,-0.00000015,0.00
 000005,0.00000125,-0.00000022,-0.00000022,-0.00000073,-0.00000488,-0.0
 0000202,0.00000070,0.00000102,0.00000079,-0.00000106,0.00000192,-0.000
 00103,0.00000029,0.00000023,-0.00000007,0.00000041,0.00000159,-0.00000
 389,-0.00000160,-0.00000119,0.00000320,-0.00000088,-0.00000152,-0.0000
 0102,0.00000150,-0.00000001,0.00000032,0.00000123,-0.00000332,0.000001
 05,0.00000130,0.00000173,0.00000217,-0.00000026,0.00000195,-0.00000246
 ,0.00000055,-0.00000002,0.00000070,-0.00000008,-0.00000022,0.00000071,
 0.00000105,0.00000338,-0.00000278,0.00000170,-0.00000142,0.00000048,-0
 .00000183,0.00000275,0.00000180,0.00000049,-0.00000392,-0.00000237,0.0
 0000030,-0.00000071,-0.00000146,0.00000046,0.00000495,0.00000035,0.000
 00163,-0.00000133,-0.00000064,0.00000104,-0.00000621,0.00000603,0.0000
 0209,-0.00000136,-0.00000086,0.00000080,0.00000102,-0.00000239,0.00000
 032,-0.00000239,-0.00000280,-0.00000039,0.00000199,-0.00000394,0.00000
 137,0.00000125,-0.00000028,0.00000091,0.00000096,0.00000184,0.00000102
 ,-0.00000690,0.00000296,-0.00000283,0.00000262,-0.00000350,0.00000046,
 -0.00000150,0.00000103,-0.00000140,-0.00000057,0.00000317,-0.00000064,
 0.00000284,-0.00000367,0.00000302,-0.00000052,0.00000043,-0.00000095,0
 .00000156,0.00000896,-0.00000663,0.00000465,-0.00001389,0.00000763,-0.
 00000527,-0.00000061,0.00000001,-0.00001094,-0.00000106,-0.00000141,-0
 .00000185,0.00000551,-0.00000503,0.00000239,0.00000283,-0.00000233,0.0
 0000093,0.00000036,-0.00000051,0.00000496,0.00000163,-0.00000179,0.000
 00419,0.00000160,-0.00000273,0.00000168,-0.00000373,0.00000124,0.00000
 035,0.00000102,0.00000041,-0.00000687,-0.00000473,0.00000135,0.0000018
 7,0.00001255,-0.00000544,0.00000120,0.00000003,-0.00000088,0.00000044,
 -0.00000996,0.00000189,0.00000273,-0.00000499,-0.00000204,0.00000062,0
 .00000251,-0.00000195,-0.00000540,-0.00001209,-0.00000103,0.00000329,0
 .00000923,0.00000080,-0.00000274,0.00000522,0.00000249,-0.00000094,-0.
 00000020,-0.00000308,0.00000081,-0.00000538,-0.00000048,0.00000061,-0.
 00000257,-0.00000289,0.00000438,-0.00000299,0.00000018,-0.00000278,-0.
 00000161,-0.00000071,-0.00000130,-0.00000046,-0.00000011,0.00000041,-0
 .00000115,0.00000161,0.00000135,-0.00000118,-0.00000156,0.00000166,-0.
 00000359,0.00000398,0.00000006,-0.00000102,-0.00000066,0.00000025,-0.0
 0000021,-0.00000218,-0.00000087,0.00000208,-0.00000087,0.00000079,0.00
 000372,0.00000069\\\@
 The archive entry for this job was punched.


 THE CHYMISTS ARE A STRANGE CLASS OF MORTALS IMPELLED
 BY AN ALMOST INSANE IMPULSE TO SEEK THEIR PLEASURE
 AMONG SMOKE AND VAPOR, SOOT AND FLAME, POISONS AND
 POVERTY; YET AMONG ALL THESE EVILS I SEEM TO LIVE
 SO SWEETLY, THAT I MAY DIE IF I WOULD CHANGE PLACES
 WITH THE PERSIAN KING.
   --  JOHANN JOACHIM BECHER, 1635-1682
 ACTA LABORATORII CHYMICA MONACENSIS, 1669
 Job cpu time:       3 days  0 hours 44 minutes  9.7 seconds.
 Elapsed time:       0 days  4 hours 38 minutes 48.4 seconds.
 File lengths (MBytes):  RWF=  18528 Int=      0 D2E=      0 Chk=     85 Scr=      1
 Normal termination of Gaussian 16 at Sun Dec  8 02:52:58 2024.
