/mnt/lustre/scratch/nvme/SLURM/9663732/usccqdma.o8DEc3oMJu
OMP_STACKSIZE=0m
GAUSS_PDEF=16
GAUSS_MDEF=65536MB
GAUSS_RDEF=SCF=Direct
 Entering Gaussian System, Link 0=g16.exe
 Initial command:
 /opt/cesga/2020/software/Core/g16/c1/l1.exe "/mnt/lustre/scratch/nvme/SLURM/9663732/usccqdma.o8DEc3oMJu/Gau-185242.inp" -scrdir="/mnt/lustre/scratch/nvme/SLURM/9663732/usccqdma.o8DEc3oMJu/"
 Default is to use a total of  16 processors:
                               16 via shared-memory
                                1 via Linda
 Entering Link 1 = /opt/cesga/2020/software/Core/g16/c1/l1.exe PID=    185272.
  
 Copyright (c) 1988-2019, Gaussian, Inc.  All Rights Reserved.
  
 This is part of the Gaussian(R) 16 program.  It is based on
 the Gaussian(R) 09 system (copyright 2009, Gaussian, Inc.),
 the Gaussian(R) 03 system (copyright 2003, Gaussian, Inc.),
 the Gaussian(R) 98 system (copyright 1998, Gaussian, Inc.),
 the Gaussian(R) 94 system (copyright 1995, Gaussian, Inc.),
 the Gaussian 92(TM) system (copyright 1992, Gaussian, Inc.),
 the Gaussian 90(TM) system (copyright 1990, Gaussian, Inc.),
 the Gaussian 88(TM) system (copyright 1988, Gaussian, Inc.),
 the Gaussian 86(TM) system (copyright 1986, Carnegie Mellon
 University), and the Gaussian 82(TM) system (copyright 1983,
 Carnegie Mellon University). Gaussian is a federally registered
 trademark of Gaussian, Inc.
  
 This software contains proprietary and confidential information,
 including trade secrets, belonging to Gaussian, Inc.
  
 This software is provided under written license and may be
 used, copied, transmitted, or stored only in accord with that
 written license.
  
 The following legend is applicable only to US Government
 contracts under FAR:
  
                    RESTRICTED RIGHTS LEGEND
  
 Use, reproduction and disclosure by the US Government is
 subject to restrictions as set forth in subparagraphs (a)
 and (c) of the Commercial Computer Software - Restricted
 Rights clause in FAR 52.227-19.
  
 Gaussian, Inc.
 340 Quinnipiac St., Bldg. 40, Wallingford CT 06492
  
  
 ---------------------------------------------------------------
 Warning -- This program may not be used in any manner that
 competes with the business of Gaussian, Inc. or will provide
 assistance to any competitor of Gaussian, Inc.  The licensee
 of this program is prohibited from giving any competitor of
 Gaussian, Inc. access to this program.  By using this program,
 the user acknowledges that Gaussian, Inc. is engaged in the
 business of creating and licensing software in the field of
 computational chemistry and represents and warrants to the
 licensee that it is not a competitor of Gaussian, Inc. and that
 it will not use this program in any manner prohibited above.
 ---------------------------------------------------------------
  

 Cite this work as:
 Gaussian 16, Revision C.01,
 M. J. Frisch, G. W. Trucks, H. B. Schlegel, G. E. Scuseria, 
 M. A. Robb, J. R. Cheeseman, G. Scalmani, V. Barone, 
 G. A. Petersson, H. Nakatsuji, X. Li, M. Caricato, A. V. Marenich, 
 J. Bloino, B. G. Janesko, R. Gomperts, B. Mennucci, H. P. Hratchian, 
 J. V. Ortiz, A. F. Izmaylov, J. L. Sonnenberg, D. Williams-Young, 
 F. Ding, F. Lipparini, F. Egidi, J. Goings, B. Peng, A. Petrone, 
 T. Henderson, D. Ranasinghe, V. G. Zakrzewski, J. Gao, N. Rega, 
 G. Zheng, W. Liang, M. Hada, M. Ehara, K. Toyota, R. Fukuda, 
 J. Hasegawa, M. Ishida, T. Nakajima, Y. Honda, O. Kitao, H. Nakai, 
 T. Vreven, K. Throssell, J. A. Montgomery, Jr., J. E. Peralta, 
 F. Ogliaro, M. J. Bearpark, J. J. Heyd, E. N. Brothers, K. N. Kudin, 
 V. N. Staroverov, T. A. Keith, R. Kobayashi, J. Normand, 
 K. Raghavachari, A. P. Rendell, J. C. Burant, S. S. Iyengar, 
 J. Tomasi, M. Cossi, J. M. Millam, M. Klene, C. Adamo, R. Cammi, 
 J. W. Ochterski, R. L. Martin, K. Morokuma, O. Farkas, 
 J. B. Foresman, and D. J. Fox, Gaussian, Inc., Wallingford CT, 2019.
 
 ******************************************
 Gaussian 16:  ES64L-G16RevC.01  3-Jul-2019
                 7-Dec-2024 
 ******************************************
 Default route: SCF=Direct
 ----------------------------------------------------
 # m06/genecp scf=tight int=ultrafine 5d freq=noraman
 ----------------------------------------------------
 1/10=4,30=1,38=1/1,3;
 2/12=2,17=6,18=5,40=1/2;
 3/5=7,8=1,11=2,16=1,17=8,25=1,30=1,71=2,74=-54,75=-5,140=1/1,2,3;
 4//1;
 5/5=2,32=2,38=5,98=1/2;
 8/6=4,10=90,11=11/1;
 11/6=1,8=1,9=11,15=111,16=1/1,2,10;
 10/6=1/2;
 6/7=2,8=2,9=2,10=2,28=1/1;
 7/8=1,10=1,25=1/1,2,3,16;
 1/10=4,30=1/3;
 99//99;
 ------
 OPT-TS
 ------
 Symbolic Z-matrix:
 Charge =  0 Multiplicity = 1
 C                     1.96709  -2.34353   0.22797 
 C                     0.35689  -2.22406   1.89966 
 C                     0.85643  -3.35198   2.5303 
 C                     1.9597   -3.98867   1.9806 
 C                     2.52164  -3.47754   0.82092 
 C                     2.50817  -1.74756  -1.00903 
 C                     2.26748  -0.08161  -2.60733 
 C                     3.35864  -0.5418   -3.33 
 C                     4.05103  -1.64827  -2.84862 
 C                     3.62457  -2.2571   -1.67829 
 H                    -0.48451  -1.66117   2.29978 
 H                     2.38585  -4.8732    2.44998 
 H                     3.38946  -3.96231   0.38104 
 H                     1.70156   0.80032  -2.90596 
 H                     4.91689  -2.03677  -3.3813 
 H                     4.15728  -3.12283  -1.29287 
 N                     0.88833  -1.73765   0.77236 
 N                     1.85506  -0.66792  -1.47966 
 Ir                    0.0983    0.01789  -0.22064 
 O                    -1.53293   0.28169   2.31198 
 O                    -1.85294  -1.15705  -2.36263 
 O                    -0.4536    3.03033   0.22762 
 B                    -1.33895  -1.22387  -1.07995 
 B                    -1.5244    0.42444   0.92468 
 B                     0.36706   2.0671   -0.3579 
 O                     1.1884    2.67125  -1.32846 
 O                    -2.78129   0.81088   0.47495 
 C                    -3.57115   1.16274   1.61834 
 C                    -2.90178   0.33016   2.74736 
 C                    -0.04084   4.31909  -0.24007 
 C                     0.64193   3.97135  -1.59368 
 C                    -3.00333  -2.01541  -2.42166 
 C                    -2.69862  -3.04798  -1.30058 
 O                    -1.93264  -2.26756  -0.37123 
 C                    -2.96209   0.95441   4.126 
 H                    -2.46544   1.9303    4.14771 
 H                    -4.00456   1.08147   4.45249 
 H                    -2.45661   0.30368   4.85114 
 C                    -3.39947  -1.10937   2.79775 
 H                    -2.76821  -1.67738   3.4949 
 H                    -4.43686  -1.17698   3.15241 
 H                    -3.32292  -1.58412   1.80878 
 C                    -3.42799   2.66612   1.82073 
 H                    -2.38229   2.94187   2.00879 
 H                    -3.73824   3.17139   0.89677 
 H                    -4.05752   3.03074   2.64413 
 C                    -5.02083   0.81346   1.34564 
 H                    -5.64509   1.00892   2.22976 
 H                    -5.39897   1.42974   0.51945 
 H                    -5.13988  -0.239     1.06099 
 C                    -4.21756  -1.1481   -2.11764 
 H                    -5.1569   -1.71398  -2.18592 
 H                    -4.13259  -0.69541  -1.12065 
 H                    -4.25373  -0.32978  -2.84766 
 C                    -3.116    -2.60166  -3.81436 
 H                    -3.32378  -1.80125  -4.53582 
 H                    -2.18981  -3.09935  -4.12266 
 H                    -3.94025  -3.32792  -3.86743 
 C                    -3.91719  -3.60598  -0.59397 
 H                    -4.56532  -4.14904  -1.29712 
 H                    -3.60305  -4.30813   0.18964 
 H                    -4.50677  -2.81299  -0.11895 
 C                    -1.79835  -4.18666  -1.76503 
 H                    -1.45074  -4.74129  -0.88359 
 H                    -2.32258  -4.88676  -2.42967 
 H                    -0.91476  -3.79835  -2.28959 
 C                    -0.35403   3.82058  -2.73718 
 H                    -1.19361   3.17278  -2.45377 
 H                    -0.75391   4.78972  -3.06449 
 H                     0.15702   3.35497  -3.59037 
 C                     1.76361   4.90424  -2.00435 
 H                     2.5789    4.90572  -1.27141 
 H                     2.17799   4.58537  -2.96971 
 H                     1.39456   5.93341  -2.11979 
 C                     0.92785   4.91038   0.77745 
 H                     1.86354   4.33789   0.83417 
 H                     1.17934   5.95334   0.54165 
 H                     0.45503   4.88444   1.76772 
 C                    -1.26246   5.2099   -0.35324 
 H                    -1.67196   5.40386   0.64707 
 H                    -1.0039    6.17755  -0.80729 
 H                    -2.04942   4.7375   -0.95119 
 H                    -0.65565   0.9403   -1.31131 
 C                     3.42434  -0.13883   1.9469 
 O                     2.75839  -0.63708   2.8485 
 C                     4.8811   -0.53653   1.7471 
 H                     5.00876  -0.93307   0.72539 
 H                     5.51987   0.35963   1.7887 
 C                     1.53128   1.20791   1.18765 
 H                     1.12147   0.75735   2.09622 
 H                     1.53503   2.28822   1.39003 
 N                     2.9167    0.76913   1.05757 
 C                     3.76611   1.46925   0.11302 
 H                     4.46142   2.15979   0.61806 
 H                     4.35973   0.77618  -0.49983 
 H                     3.13129   2.05021  -0.56209 
 C                     5.3297   -1.56016   2.7715 
 H                     5.21922  -1.16986   3.78908 
 H                     4.71318  -2.46554   2.71251 
 H                     3.65997  -0.03649  -4.244 
 H                     0.39224  -3.7071    3.44619 
 H                     6.37929  -1.83779   2.61438 
 

 GradGradGradGradGradGradGradGradGradGradGradGradGradGradGradGradGradGrad
 Berny optimization.
 Initialization pass.
 Trust Radius=3.00D-01 FncErr=1.00D-07 GrdErr=1.00D-07 EigMax=2.50D+02 EigMin=1.00D-04
 Number of steps in this run=      2 maximum allowed number of steps=      2.
 GradGradGradGradGradGradGradGradGradGradGradGradGradGradGradGradGradGrad

 Stoichiometry    C33H55B3IrN3O7
 Framework group  C1[X(C33H55B3IrN3O7)]
 Deg. of freedom   300
 Full point group                 C1      NOp   1
 Largest Abelian subgroup         C1      NOp   1
 Largest concise Abelian subgroup C1      NOp   1
                         Standard orientation:                         
 ---------------------------------------------------------------------
 Center     Atomic      Atomic             Coordinates (Angstroms)
 Number     Number       Type             X           Y           Z
 ---------------------------------------------------------------------
      1          6           0        1.967096   -2.343526    0.227969
      2          6           0        0.356896   -2.224059    1.899659
      3          6           0        0.856438   -3.351978    2.530299
      4          6           0        1.959710   -3.988666    1.980599
      5          6           0        2.521648   -3.477534    0.820919
      6          6           0        2.508175   -1.747554   -1.009031
      7          6           0        2.267481   -0.081605   -2.607331
      8          6           0        3.358642   -0.541793   -3.330001
      9          6           0        4.051034   -1.648261   -2.848621
     10          6           0        3.624576   -2.257092   -1.678291
     11          1           0       -0.484506   -1.661171    2.299779
     12          1           0        2.385862   -4.873195    2.449979
     13          1           0        3.389470   -3.962303    0.381039
     14          1           0        1.701559    0.800324   -2.905961
     15          1           0        4.916895   -2.036759   -3.381301
     16          1           0        4.157288   -3.122821   -1.292871
     17          7           0        0.888335   -1.737648    0.772359
     18          7           0        1.855062   -0.667916   -1.479661
     19         77           0        0.098301    0.017890   -0.220641
     20          8           0       -1.532930    0.281687    2.311979
     21          8           0       -1.852937   -1.157054   -2.362631
     22          8           0       -0.453606    3.030329    0.227619
     23          5           0       -1.338947   -1.223873   -1.079951
     24          5           0       -1.524400    0.424437    0.924679
     25          5           0        0.367056    2.067101   -0.357901
     26          8           0        1.188395    2.671253   -1.328461
     27          8           0       -2.781291    0.810874    0.474949
     28          6           0       -3.571152    1.162732    1.618339
     29          6           0       -2.901780    0.330154    2.747359
     30          6           0       -0.040849    4.319090   -0.240071
     31          6           0        0.641922    3.971351   -1.593681
     32          6           0       -3.003325   -2.015417   -2.421661
     33          6           0       -2.698612   -3.047986   -1.300581
     34          8           0       -1.932634   -2.267564   -0.371231
     35          6           0       -2.962091    0.954403    4.125999
     36          1           0       -2.465444    1.930294    4.147709
     37          1           0       -4.004562    1.081461    4.452489
     38          1           0       -2.456610    0.303675    4.851139
     39          6           0       -3.399467   -1.109378    2.797749
     40          1           0       -2.768206   -1.677386    3.494899
     41          1           0       -4.436857   -1.176990    3.152409
     42          1           0       -3.322916   -1.584127    1.808779
     43          6           0       -3.427995    2.666112    1.820729
     44          1           0       -2.382296    2.941865    2.008789
     45          1           0       -3.738246    3.171382    0.896769
     46          1           0       -4.057526    3.030731    2.644129
     47          6           0       -5.020831    0.813449    1.345639
     48          1           0       -5.645091    1.008907    2.229759
     49          1           0       -5.398972    1.429728    0.519449
     50          1           0       -5.139879   -0.239011    1.060989
     51          6           0       -4.217557   -1.148109   -2.117641
     52          1           0       -5.156895   -1.713991   -2.185921
     53          1           0       -4.132588   -0.695419   -1.120651
     54          1           0       -4.253729   -0.329789   -2.847661
     55          6           0       -3.115993   -2.601667   -3.814361
     56          1           0       -3.323775   -1.801257   -4.535821
     57          1           0       -2.189802   -3.099355   -4.122661
     58          1           0       -3.940242   -3.327929   -3.867431
     59          6           0       -3.917181   -3.605989   -0.593971
     60          1           0       -4.565310   -4.149050   -1.297121
     61          1           0       -3.603040   -4.308138    0.189639
     62          1           0       -4.506763   -2.813000   -0.118951
     63          6           0       -1.798340   -4.186664   -1.765031
     64          1           0       -1.450729   -4.741293   -0.883591
     65          1           0       -2.322568   -4.886765   -2.429671
     66          1           0       -0.914751   -3.798352   -2.289591
     67          6           0       -0.354038    3.820579   -2.737181
     68          1           0       -1.193616    3.172777   -2.453771
     69          1           0       -0.753920    4.789718   -3.064491
     70          1           0        0.157013    3.354970   -3.590371
     71          6           0        1.763600    4.904244   -2.004351
     72          1           0        2.578890    4.905726   -1.271411
     73          1           0        2.177981    4.585375   -2.969711
     74          1           0        1.394548    5.933413   -2.119791
     75          6           0        0.927840    4.910382    0.777449
     76          1           0        1.863531    4.337894    0.834169
     77          1           0        1.179328    5.953343    0.541649
     78          1           0        0.455020    4.884441    1.767719
     79          6           0       -1.262471    5.209897   -0.353241
     80          1           0       -1.671971    5.403856    0.647069
     81          1           0       -1.003913    6.177548   -0.807291
     82          1           0       -2.049430    4.737495   -0.951191
     83          1           0       -0.655651    0.940299   -1.311311
     84          6           0        3.424341   -0.138822    1.946899
     85          8           0        2.758392   -0.637074    2.848499
     86          6           0        4.881102   -0.536519    1.747099
     87          1           0        5.008763   -0.933059    0.725389
     88          1           0        5.519870    0.359642    1.788699
     89          6           0        1.531278    1.207913    1.187649
     90          1           0        1.121469    0.757352    2.096219
     91          1           0        1.535026    2.288223    1.390029
     92          7           0        2.916699    0.769136    1.057569
     93          6           0        3.766108    1.469258    0.113019
     94          1           0        4.461416    2.159800    0.618059
     95          1           0        4.359729    0.776190   -0.499831
     96          1           0        3.131286    2.050217   -0.562091
     97          6           0        5.329704   -1.560148    2.771499
     98          1           0        5.219223   -1.169848    3.789079
     99          1           0        4.713186   -2.465530    2.712509
    100          1           0        3.659971   -0.036482   -4.244001
    101          1           0        0.392249   -3.707099    3.446189
    102          1           0        6.379295   -1.837776    2.614379
 ---------------------------------------------------------------------
 Rotational constants (GHZ):           0.0760434           0.0687325           0.0563287
 General basis read from cards:  (5D, 7F)
 ======================================================================================================
                                       Pseudopotential Parameters
 ======================================================================================================
  Center     Atomic      Valence      Angular      Power
  Number     Number     Electrons     Momentum     of R      Exponent        Coefficient   SO-Coeffient
 ======================================================================================================
    1          6
                                   No pseudopotential on this center.
    2          6
                                   No pseudopotential on this center.
    3          6
                                   No pseudopotential on this center.
    4          6
                                   No pseudopotential on this center.
    5          6
                                   No pseudopotential on this center.
    6          6
                                   No pseudopotential on this center.
    7          6
                                   No pseudopotential on this center.
    8          6
                                   No pseudopotential on this center.
    9          6
                                   No pseudopotential on this center.
   10          6
                                   No pseudopotential on this center.
   11          1
                                   No pseudopotential on this center.
   12          1
                                   No pseudopotential on this center.
   13          1
                                   No pseudopotential on this center.
   14          1
                                   No pseudopotential on this center.
   15          1
                                   No pseudopotential on this center.
   16          1
                                   No pseudopotential on this center.
   17          7
                                   No pseudopotential on this center.
   18          7
                                   No pseudopotential on this center.
   19         77           17
                                      G and up 
                                                     1      823.5880147       -0.15780140    0.00000000
                                                     2      364.6613336    -1517.52704460    0.00000000
                                                     2       55.7082801     -316.53065290    0.00000000
                                                     2       12.0464544      -91.88809410    0.00000000
                                                     2        3.5120610       -9.22417730    0.00000000
                                      S - G
                                                     0      188.0490770        3.15780140    0.00000000
                                                     1      340.4194712       26.83225770    0.00000000
                                                     2      128.2373673      800.42500070    0.00000000
                                                     2       33.8644961      369.40506830    0.00000000
                                                     2        4.7560005      242.41718990    0.00000000
                                                     2        3.9649974     -118.21732820    0.00000000
                                      P - G
                                                     0      289.7291139        2.15780140    0.00000000
                                                     1       87.4633789       61.96786100    0.00000000
                                                     2       30.4363766      269.05819860    0.00000000
                                                     2        4.0553412      231.16547930    0.00000000
                                                     2        3.5525341     -133.69526670    0.00000000
                                      D - G
                                                     0      136.4017106        3.15780140    0.00000000
                                                     1       95.0776925       45.93498030    0.00000000
                                                     2       49.2258410      359.03446680    0.00000000
                                                     2       15.0874145      176.47401190    0.00000000
                                                     2        4.0405764       54.51552860    0.00000000
                                      F - G
                                                     0      127.3507908        3.95461970    0.00000000
                                                     1       66.2364374       52.97736550    0.00000000
                                                     2       34.4299229      274.86433830    0.00000000
                                                     2       10.1995721      137.20473380    0.00000000
                                                     2        2.5409702       14.86333050    0.00000000
   20          8
                                   No pseudopotential on this center.
   21          8
                                   No pseudopotential on this center.
   22          8
                                   No pseudopotential on this center.
   23          5
                                   No pseudopotential on this center.
   24          5
                                   No pseudopotential on this center.
   25          5
                                   No pseudopotential on this center.
   26          8
                                   No pseudopotential on this center.
   27          8
                                   No pseudopotential on this center.
   28          6
                                   No pseudopotential on this center.
   29          6
                                   No pseudopotential on this center.
   30          6
                                   No pseudopotential on this center.
   31          6
                                   No pseudopotential on this center.
   32          6
                                   No pseudopotential on this center.
   33          6
                                   No pseudopotential on this center.
   34          8
                                   No pseudopotential on this center.
   35          6
                                   No pseudopotential on this center.
   36          1
                                   No pseudopotential on this center.
   37          1
                                   No pseudopotential on this center.
   38          1
                                   No pseudopotential on this center.
   39          6
                                   No pseudopotential on this center.
   40          1
                                   No pseudopotential on this center.
   41          1
                                   No pseudopotential on this center.
   42          1
                                   No pseudopotential on this center.
   43          6
                                   No pseudopotential on this center.
   44          1
                                   No pseudopotential on this center.
   45          1
                                   No pseudopotential on this center.
   46          1
                                   No pseudopotential on this center.
   47          6
                                   No pseudopotential on this center.
   48          1
                                   No pseudopotential on this center.
   49          1
                                   No pseudopotential on this center.
   50          1
                                   No pseudopotential on this center.
   51          6
                                   No pseudopotential on this center.
   52          1
                                   No pseudopotential on this center.
   53          1
                                   No pseudopotential on this center.
   54          1
                                   No pseudopotential on this center.
   55          6
                                   No pseudopotential on this center.
   56          1
                                   No pseudopotential on this center.
   57          1
                                   No pseudopotential on this center.
   58          1
                                   No pseudopotential on this center.
   59          6
                                   No pseudopotential on this center.
   60          1
                                   No pseudopotential on this center.
   61          1
                                   No pseudopotential on this center.
   62          1
                                   No pseudopotential on this center.
   63          6
                                   No pseudopotential on this center.
   64          1
                                   No pseudopotential on this center.
   65          1
                                   No pseudopotential on this center.
   66          1
                                   No pseudopotential on this center.
   67          6
                                   No pseudopotential on this center.
   68          1
                                   No pseudopotential on this center.
   69          1
                                   No pseudopotential on this center.
   70          1
                                   No pseudopotential on this center.
   71          6
                                   No pseudopotential on this center.
   72          1
                                   No pseudopotential on this center.
   73          1
                                   No pseudopotential on this center.
   74          1
                                   No pseudopotential on this center.
   75          6
                                   No pseudopotential on this center.
   76          1
                                   No pseudopotential on this center.
   77          1
                                   No pseudopotential on this center.
   78          1
                                   No pseudopotential on this center.
   79          6
                                   No pseudopotential on this center.
   80          1
                                   No pseudopotential on this center.
   81          1
                                   No pseudopotential on this center.
   82          1
                                   No pseudopotential on this center.
   83          1
                                   No pseudopotential on this center.
   84          6
                                   No pseudopotential on this center.
   85          8
                                   No pseudopotential on this center.
   86          6
                                   No pseudopotential on this center.
   87          1
                                   No pseudopotential on this center.
   88          1
                                   No pseudopotential on this center.
   89          6
                                   No pseudopotential on this center.
   90          1
                                   No pseudopotential on this center.
   91          1
                                   No pseudopotential on this center.
   92          7
                                   No pseudopotential on this center.
   93          6
                                   No pseudopotential on this center.
   94          1
                                   No pseudopotential on this center.
   95          1
                                   No pseudopotential on this center.
   96          1
                                   No pseudopotential on this center.
   97          6
                                   No pseudopotential on this center.
   98          1
                                   No pseudopotential on this center.
   99          1
                                   No pseudopotential on this center.
  100          1
                                   No pseudopotential on this center.
  101          1
                                   No pseudopotential on this center.
  102          1
                                   No pseudopotential on this center.
 ======================================================================================================
 There are   824 symmetry adapted cartesian basis functions of A   symmetry.
 There are   776 symmetry adapted basis functions of A   symmetry.
   776 basis functions,  1551 primitive gaussians,   824 cartesian basis functions
   181 alpha electrons      181 beta electrons
       nuclear repulsion energy      7459.1452853146 Hartrees.
 NAtoms=  102 NActive=  102 NUniq=  102 SFac= 1.00D+00 NAtFMM=   60 NAOKFM=T Big=T
 Integral buffers will be    131072 words long.
 Raffenetti 2 integral format.
 Two-electron integral symmetry is turned on.
 One-electron integrals computed using PRISM.
   1 Symmetry operations used in ECPInt.
 ECPInt:  NShTT=   45753 NPrTT=  276657 LenC2=   36277 LenP2D=  113420.
 LDataN:  DoStor=T MaxTD1= 6 Len=  172
 NBasis=   776 RedAO= T EigKep=  5.22D-04  NBF=   776
 NBsUse=   776 1.00D-06 EigRej= -1.00D+00 NBFU=   776
 Defaulting to unpruned grid for atomic number  77.
 ExpMin= 2.90D-02 ExpMax= 5.48D+03 ExpMxC= 8.25D+02 IAcc=3 IRadAn=         5 AccDes= 0.00D+00
 Harris functional with IExCor= 1009 and IRadAn=       5 diagonalized for initial guess.
 HarFok:  IExCor= 1009 AccDes= 0.00D+00 IRadAn=         5 IDoV= 1 UseB2=F ITyADJ=14
 ICtDFT=  3500011 ScaDFX=  1.000000  1.000000  1.000000  1.000000
 Defaulting to unpruned grid for atomic number  77.
 FoFCou: FMM=F IPFlag=           0 FMFlag=      100000 FMFlg1=        2001
         NFxFlg=           0 DoJE=T BraDBF=F KetDBF=T FulRan=T
         wScrn=  0.000000 ICntrl=       500 IOpCl=  0 I1Cent=   200000004 NGrid=           0
         NMat0=    1 NMatS0=      1 NMatT0=    0 NMatD0=    1 NMtDS0=    0 NMtDT0=    0
 Petite list used in FoFCou.
 Requested convergence on RMS density matrix=1.00D-08 within 128 cycles.
 Requested convergence on MAX density matrix=1.00D-06.
 Requested convergence on             energy=1.00D-06.
 No special actions if energy rises.
 Defaulting to unpruned grid for atomic number  77.
 Defaulting to unpruned grid for atomic number  77.
 Defaulting to unpruned grid for atomic number  77.
 Defaulting to unpruned grid for atomic number  77.
 Defaulting to unpruned grid for atomic number  77.
 Defaulting to unpruned grid for atomic number  77.
 Defaulting to unpruned grid for atomic number  77.
 Defaulting to unpruned grid for atomic number  77.
 Defaulting to unpruned grid for atomic number  77.
 Defaulting to unpruned grid for atomic number  77.
 Defaulting to unpruned grid for atomic number  77.
 Defaulting to unpruned grid for atomic number  77.
 Defaulting to unpruned grid for atomic number  77.
 Defaulting to unpruned grid for atomic number  77.
 Defaulting to unpruned grid for atomic number  77.
 Defaulting to unpruned grid for atomic number  77.
 SCF Done:  E(RM06) =  -2159.67451043     A.U. after   14 cycles
            NFock= 14  Conv=0.90D-08     -V/T= 2.0409
 DoSCS=F DFT=T ScalE2(SS,OS)=  1.000000  1.000000
 Range of M.O.s used for correlation:     1   776
 NBasis=   776 NAE=   181 NBE=   181 NFC=     0 NFV=     0
 NROrb=    776 NOA=   181 NOB=   181 NVA=   595 NVB=   595

 **** Warning!!: The largest alpha MO coefficient is  0.11037935D+02

   1 Symmetry operations used in ECPInt.
 ECPInt:  NShTT=   45753 NPrTT=  276657 LenC2=   36277 LenP2D=  113420.
 LDataN:  DoStor=T MaxTD1= 7 Len=  274
 Number of processors reduced to   8 by ecpmxn.
 Symmetrizing basis deriv contribution to polar:
 IMax=3 JMax=2 DiffMx= 0.00D+00
 G2DrvN: will do   103 centers at a time, making    1 passes.
 Calling FoFCou, ICntrl=  3107 FMM=T I1Cent=   0 AccDes= 0.00D+00.
 Defaulting to unpruned grid for atomic number  77.
 Defaulting to unpruned grid for atomic number  77.
 Defaulting to unpruned grid for atomic number  77.
 Defaulting to unpruned grid for atomic number  77.
 Defaulting to unpruned grid for atomic number  77.
 Defaulting to unpruned grid for atomic number  77.
 Defaulting to unpruned grid for atomic number  77.
 Defaulting to unpruned grid for atomic number  77.
 Defaulting to unpruned grid for atomic number  77.
 Defaulting to unpruned grid for atomic number  77.
 Defaulting to unpruned grid for atomic number  77.
 Defaulting to unpruned grid for atomic number  77.
 Defaulting to unpruned grid for atomic number  77.
 Defaulting to unpruned grid for atomic number  77.
 Defaulting to unpruned grid for atomic number  77.
 Defaulting to unpruned grid for atomic number  77.
 End of G2Drv F.D. properties file   721 does not exist.
 End of G2Drv F.D. properties file   722 does not exist.
 End of G2Drv F.D. properties file   788 does not exist.
          IDoAtm=11111111111111111111111111111111111111111111111111
          IDoAtm=11111111111111111111111111111111111111111111111111
          IDoAtm=11
          Differentiating once with respect to electric field.
                with respect to dipole field.
          Differentiating once with respect to nuclear coordinates.
 Defaulting to unpruned grid for atomic number  77.
 CalDSu exits because no D1Ps are significant.
 Defaulting to unpruned grid for atomic number  77.
 Defaulting to unpruned grid for atomic number  77.
 Defaulting to unpruned grid for atomic number  77.
 Defaulting to unpruned grid for atomic number  77.
 Defaulting to unpruned grid for atomic number  77.
 Defaulting to unpruned grid for atomic number  77.
 Defaulting to unpruned grid for atomic number  77.
 Defaulting to unpruned grid for atomic number  77.
 Defaulting to unpruned grid for atomic number  77.
 Defaulting to unpruned grid for atomic number  77.
 Defaulting to unpruned grid for atomic number  77.
 Defaulting to unpruned grid for atomic number  77.
 Defaulting to unpruned grid for atomic number  77.
 Defaulting to unpruned grid for atomic number  77.
 Defaulting to unpruned grid for atomic number  77.
 Defaulting to unpruned grid for atomic number  77.
          There are   309 degrees of freedom in the 1st order CPHF.  IDoFFX=6 NUNeed=     3.
    306 vectors produced by pass  0 Test12= 1.08D-13 1.00D-09 XBig12= 4.06D+02 7.85D+00.
 AX will form    72 AO Fock derivatives at one time.
    306 vectors produced by pass  1 Test12= 1.08D-13 1.00D-09 XBig12= 6.24D+01 1.06D+00.
    306 vectors produced by pass  2 Test12= 1.08D-13 1.00D-09 XBig12= 7.20D-01 6.76D-02.
    306 vectors produced by pass  3 Test12= 1.08D-13 1.00D-09 XBig12= 3.97D-03 6.29D-03.
    306 vectors produced by pass  4 Test12= 1.08D-13 1.00D-09 XBig12= 1.18D-05 3.51D-04.
    266 vectors produced by pass  5 Test12= 1.08D-13 1.00D-09 XBig12= 2.18D-08 6.93D-06.
     69 vectors produced by pass  6 Test12= 1.08D-13 1.00D-09 XBig12= 2.86D-11 2.54D-07.
      3 vectors produced by pass  7 Test12= 1.08D-13 1.00D-09 XBig12= 3.70D-14 1.18D-08.
 InvSVY:  IOpt=1 It=  1 EMax= 1.42D-14
 Solved reduced A of dimension  1868 with   309 vectors.
 Isotropic polarizability for W=    0.000000      460.15 Bohr**3.
 End of Minotr F.D. properties file   721 does not exist.
 End of Minotr F.D. properties file   722 does not exist.
 End of Minotr F.D. properties file   788 does not exist.
 Hyperfine terms turned off by default for NAtoms > 100.

 **********************************************************************

            Population analysis using the SCF Density.

 **********************************************************************

 Orbital symmetries:
       Occupied  (A) (A) (A) (A) (A) (A) (A) (A) (A) (A) (A) (A)
                 (A) (A) (A) (A) (A) (A) (A) (A) (A) (A) (A) (A)
                 (A) (A) (A) (A) (A) (A) (A) (A) (A) (A) (A) (A)
                 (A) (A) (A) (A) (A) (A) (A) (A) (A) (A) (A) (A)
                 (A) (A) (A) (A) (A) (A) (A) (A) (A) (A) (A) (A)
                 (A) (A) (A) (A) (A) (A) (A) (A) (A) (A) (A) (A)
                 (A) (A) (A) (A) (A) (A) (A) (A) (A) (A) (A) (A)
                 (A) (A) (A) (A) (A) (A) (A) (A) (A) (A) (A) (A)
                 (A) (A) (A) (A) (A) (A) (A) (A) (A) (A) (A) (A)
                 (A) (A) (A) (A) (A) (A) (A) (A) (A) (A) (A) (A)
                 (A) (A) (A) (A) (A) (A) (A) (A) (A) (A) (A) (A)
                 (A) (A) (A) (A) (A) (A) (A) (A) (A) (A) (A) (A)
                 (A) (A) (A) (A) (A) (A) (A) (A) (A) (A) (A) (A)
                 (A) (A) (A) (A) (A) (A) (A) (A) (A) (A) (A) (A)
                 (A) (A) (A) (A) (A) (A) (A) (A) (A) (A) (A) (A)
                 (A)
       Virtual   (A) (A) (A) (A) (A) (A) (A) (A) (A) (A) (A) (A)
                 (A) (A) (A) (A) (A) (A) (A) (A) (A) (A) (A) (A)
                 (A) (A) (A) (A) (A) (A) (A) (A) (A) (A) (A) (A)
                 (A) (A) (A) (A) (A) (A) (A) (A) (A) (A) (A) (A)
                 (A) (A) (A) (A) (A) (A) (A) (A) (A) (A) (A) (A)
                 (A) (A) (A) (A) (A) (A) (A) (A) (A) (A) (A) (A)
                 (A) (A) (A) (A) (A) (A) (A) (A) (A) (A) (A) (A)
                 (A) (A) (A) (A) (A) (A) (A) (A) (A) (A) (A) (A)
                 (A) (A) (A) (A) (A) (A) (A) (A) (A) (A) (A) (A)
                 (A) (A) (A) (A) (A) (A) (A) (A) (A) (A) (A) (A)
                 (A) (A) (A) (A) (A) (A) (A) (A) (A) (A) (A) (A)
                 (A) (A) (A) (A) (A) (A) (A) (A) (A) (A) (A) (A)
                 (A) (A) (A) (A) (A) (A) (A) (A) (A) (A) (A) (A)
                 (A) (A) (A) (A) (A) (A) (A) (A) (A) (A) (A) (A)
                 (A) (A) (A) (A) (A) (A) (A) (A) (A) (A) (A) (A)
                 (A) (A) (A) (A) (A) (A) (A) (A) (A) (A) (A) (A)
                 (A) (A) (A) (A) (A) (A) (A) (A) (A) (A) (A) (A)
                 (A) (A) (A) (A) (A) (A) (A) (A) (A) (A) (A) (A)
                 (A) (A) (A) (A) (A) (A) (A) (A) (A) (A) (A) (A)
                 (A) (A) (A) (A) (A) (A) (A) (A) (A) (A) (A) (A)
                 (A) (A) (A) (A) (A) (A) (A) (A) (A) (A) (A) (A)
                 (A) (A) (A) (A) (A) (A) (A) (A) (A) (A) (A) (A)
                 (A) (A) (A) (A) (A) (A) (A) (A) (A) (A) (A) (A)
                 (A) (A) (A) (A) (A) (A) (A) (A) (A) (A) (A) (A)
                 (A) (A) (A) (A) (A) (A) (A) (A) (A) (A) (A) (A)
                 (A) (A) (A) (A) (A) (A) (A) (A) (A) (A) (A) (A)
                 (A) (A) (A) (A) (A) (A) (A) (A) (A) (A) (A) (A)
                 (A) (A) (A) (A) (A) (A) (A) (A) (A) (A) (A) (A)
                 (A) (A) (A) (A) (A) (A) (A) (A) (A) (A) (A) (A)
                 (A) (A) (A) (A) (A) (A) (A) (A) (A) (A) (A) (A)
                 (A) (A) (A) (A) (A) (A) (A) (A) (A) (A) (A) (A)
                 (A) (A) (A) (A) (A) (A) (A) (A) (A) (A) (A) (A)
                 (A) (A) (A) (A) (A) (A) (A) (A) (A) (A) (A) (A)
                 (A) (A) (A) (A) (A) (A) (A) (A) (A) (A) (A) (A)
                 (A) (A) (A) (A) (A) (A) (A) (A) (A) (A) (A) (A)
                 (A) (A) (A) (A) (A) (A) (A) (A) (A) (A) (A) (A)
                 (A) (A) (A) (A) (A) (A) (A) (A) (A) (A) (A) (A)
                 (A) (A) (A) (A) (A) (A) (A) (A) (A) (A) (A) (A)
                 (A) (A) (A) (A) (A) (A) (A) (A) (A) (A) (A) (A)
                 (A) (A) (A) (A) (A) (A) (A) (A) (A) (A) (A) (A)
                 (A) (A) (A) (A) (A) (A) (A) (A) (A) (A) (A) (A)
                 (A) (A) (A) (A) (A) (A) (A) (A) (A) (A) (A) (A)
                 (A) (A) (A) (A) (A) (A) (A) (A) (A) (A) (A) (A)
                 (A) (A) (A) (A) (A) (A) (A) (A) (A) (A) (A) (A)
                 (A) (A) (A) (A) (A) (A) (A) (A) (A) (A) (A) (A)
                 (A) (A) (A) (A) (A) (A) (A) (A) (A) (A) (A) (A)
                 (A) (A) (A) (A) (A) (A) (A) (A) (A) (A) (A) (A)
                 (A) (A) (A) (A) (A) (A) (A) (A) (A) (A) (A) (A)
                 (A) (A) (A) (A) (A) (A) (A) (A) (A) (A) (A) (A)
                 (A) (A) (A) (A) (A) (A) (A)
 The electronic state is 1-A.
 Alpha  occ. eigenvalues --  -19.20283 -19.19817 -19.19723 -19.19630 -19.19482
 Alpha  occ. eigenvalues --  -19.19146 -19.16751 -14.44689 -14.44280 -14.40825
 Alpha  occ. eigenvalues --  -10.32419 -10.31861 -10.31461 -10.30152 -10.29562
 Alpha  occ. eigenvalues --  -10.29358 -10.29187 -10.28906 -10.28847 -10.28613
 Alpha  occ. eigenvalues --  -10.28588 -10.28381 -10.28183 -10.28060 -10.27581
 Alpha  occ. eigenvalues --  -10.27565 -10.26606 -10.25858 -10.24290 -10.24262
 Alpha  occ. eigenvalues --  -10.23158 -10.22573 -10.22570 -10.22565 -10.22481
 Alpha  occ. eigenvalues --  -10.22367 -10.22338 -10.22292 -10.22121 -10.22037
 Alpha  occ. eigenvalues --  -10.21752 -10.21197 -10.21072  -6.82351  -6.78979
 Alpha  occ. eigenvalues --   -6.78674  -3.63493  -2.06408  -2.05408  -2.04311
 Alpha  occ. eigenvalues --   -1.06212  -1.05609  -1.05313  -1.02644  -0.99586
 Alpha  occ. eigenvalues --   -0.99270  -0.98636  -0.98405  -0.97030  -0.92194
 Alpha  occ. eigenvalues --   -0.83977  -0.82983  -0.82352  -0.80523  -0.79906
 Alpha  occ. eigenvalues --   -0.79578  -0.77529  -0.76896  -0.74980  -0.74360
 Alpha  occ. eigenvalues --   -0.74039  -0.70515  -0.70240  -0.69982  -0.69567
 Alpha  occ. eigenvalues --   -0.68544  -0.67982  -0.67750  -0.67490  -0.67174
 Alpha  occ. eigenvalues --   -0.66808  -0.64070  -0.63127  -0.62323  -0.61104
 Alpha  occ. eigenvalues --   -0.61055  -0.60636  -0.57247  -0.54794  -0.54079
 Alpha  occ. eigenvalues --   -0.53956  -0.53812  -0.52951  -0.52886  -0.52815
 Alpha  occ. eigenvalues --   -0.52357  -0.51838  -0.50474  -0.49472  -0.49262
 Alpha  occ. eigenvalues --   -0.48384  -0.47685  -0.47016  -0.46789  -0.46460
 Alpha  occ. eigenvalues --   -0.46144  -0.45840  -0.45768  -0.45666  -0.45403
 Alpha  occ. eigenvalues --   -0.45273  -0.44862  -0.44651  -0.44036  -0.43894
 Alpha  occ. eigenvalues --   -0.43767  -0.43381  -0.43352  -0.43018  -0.42771
 Alpha  occ. eigenvalues --   -0.42341  -0.41542  -0.40610  -0.40166  -0.40098
 Alpha  occ. eigenvalues --   -0.39907  -0.39673  -0.39570  -0.39323  -0.39277
 Alpha  occ. eigenvalues --   -0.39148  -0.39116  -0.38983  -0.38798  -0.38569
 Alpha  occ. eigenvalues --   -0.38494  -0.38080  -0.37622  -0.37572  -0.37323
 Alpha  occ. eigenvalues --   -0.37302  -0.37020  -0.36740  -0.36711  -0.36301
 Alpha  occ. eigenvalues --   -0.36058  -0.35890  -0.35775  -0.35587  -0.35455
 Alpha  occ. eigenvalues --   -0.35175  -0.35003  -0.34988  -0.34726  -0.34367
 Alpha  occ. eigenvalues --   -0.34123  -0.33470  -0.33251  -0.32792  -0.32299
 Alpha  occ. eigenvalues --   -0.31974  -0.31569  -0.31380  -0.31073  -0.30996
 Alpha  occ. eigenvalues --   -0.30658  -0.30165  -0.29811  -0.29309  -0.28455
 Alpha  occ. eigenvalues --   -0.27049  -0.26391  -0.26106  -0.25904  -0.25649
 Alpha  occ. eigenvalues --   -0.25506  -0.24680  -0.24059  -0.22807  -0.21468
 Alpha  occ. eigenvalues --   -0.18787
 Alpha virt. eigenvalues --   -0.06546  -0.03461  -0.02339   0.02242   0.03546
 Alpha virt. eigenvalues --    0.04309   0.05533   0.06160   0.06977   0.07766
 Alpha virt. eigenvalues --    0.08161   0.08563   0.10038   0.10175   0.10487
 Alpha virt. eigenvalues --    0.11138   0.11484   0.11943   0.12053   0.12198
 Alpha virt. eigenvalues --    0.12631   0.13214   0.13629   0.13761   0.13877
 Alpha virt. eigenvalues --    0.14072   0.14358   0.14653   0.15077   0.15223
 Alpha virt. eigenvalues --    0.15434   0.15541   0.15827   0.15865   0.16132
 Alpha virt. eigenvalues --    0.16294   0.16501   0.16735   0.17064   0.17204
 Alpha virt. eigenvalues --    0.17267   0.17537   0.17832   0.17885   0.17945
 Alpha virt. eigenvalues --    0.18204   0.18427   0.18897   0.18909   0.19117
 Alpha virt. eigenvalues --    0.19225   0.19315   0.19675   0.19921   0.20124
 Alpha virt. eigenvalues --    0.20234   0.20546   0.20709   0.20831   0.20944
 Alpha virt. eigenvalues --    0.21031   0.21447   0.21680   0.21841   0.22218
 Alpha virt. eigenvalues --    0.22584   0.22690   0.22906   0.23360   0.23642
 Alpha virt. eigenvalues --    0.23978   0.24321   0.24484   0.24591   0.24894
 Alpha virt. eigenvalues --    0.25065   0.25255   0.25732   0.25889   0.26099
 Alpha virt. eigenvalues --    0.26360   0.26474   0.26846   0.26885   0.27241
 Alpha virt. eigenvalues --    0.27425   0.27859   0.28340   0.28592   0.28995
 Alpha virt. eigenvalues --    0.29129   0.29221   0.29660   0.30093   0.30254
 Alpha virt. eigenvalues --    0.30913   0.31111   0.31485   0.32025   0.33117
 Alpha virt. eigenvalues --    0.34078   0.34467   0.35132   0.36387   0.36744
 Alpha virt. eigenvalues --    0.36903   0.37267   0.38085   0.38789   0.39443
 Alpha virt. eigenvalues --    0.40379   0.40855   0.41998   0.42572   0.43780
 Alpha virt. eigenvalues --    0.47034   0.47448   0.47825   0.48776   0.49603
 Alpha virt. eigenvalues --    0.49879   0.50568   0.50708   0.51019   0.51287
 Alpha virt. eigenvalues --    0.51618   0.52184   0.52295   0.52531   0.53188
 Alpha virt. eigenvalues --    0.53233   0.53699   0.53931   0.54182   0.54819
 Alpha virt. eigenvalues --    0.55269   0.55812   0.56467   0.56788   0.57353
 Alpha virt. eigenvalues --    0.57580   0.57743   0.58060   0.58393   0.58607
 Alpha virt. eigenvalues --    0.58714   0.58895   0.58946   0.59150   0.59306
 Alpha virt. eigenvalues --    0.59774   0.60053   0.60281   0.60514   0.60799
 Alpha virt. eigenvalues --    0.61062   0.61164   0.61853   0.62036   0.62249
 Alpha virt. eigenvalues --    0.62926   0.63059   0.63521   0.64165   0.64451
 Alpha virt. eigenvalues --    0.65100   0.65181   0.65438   0.66109   0.66600
 Alpha virt. eigenvalues --    0.66924   0.67054   0.67232   0.67673   0.68072
 Alpha virt. eigenvalues --    0.68503   0.68861   0.68993   0.69446   0.69997
 Alpha virt. eigenvalues --    0.70087   0.70411   0.71095   0.71396   0.71786
 Alpha virt. eigenvalues --    0.72302   0.72504   0.72588   0.73112   0.73341
 Alpha virt. eigenvalues --    0.73463   0.74279   0.74573   0.74841   0.75292
 Alpha virt. eigenvalues --    0.75604   0.76008   0.76377   0.77121   0.77387
 Alpha virt. eigenvalues --    0.78095   0.78263   0.78450   0.78807   0.79391
 Alpha virt. eigenvalues --    0.79564   0.80153   0.80562   0.81432   0.81667
 Alpha virt. eigenvalues --    0.81726   0.82387   0.82439   0.82593   0.83210
 Alpha virt. eigenvalues --    0.83590   0.84123   0.84341   0.84698   0.84778
 Alpha virt. eigenvalues --    0.84987   0.85292   0.85466   0.85608   0.86028
 Alpha virt. eigenvalues --    0.86233   0.86476   0.86802   0.87293   0.87624
 Alpha virt. eigenvalues --    0.87988   0.88181   0.88243   0.88270   0.88570
 Alpha virt. eigenvalues --    0.88937   0.89263   0.89591   0.89840   0.89971
 Alpha virt. eigenvalues --    0.90182   0.90656   0.90808   0.90911   0.91049
 Alpha virt. eigenvalues --    0.91140   0.91488   0.91665   0.91820   0.92232
 Alpha virt. eigenvalues --    0.92421   0.92890   0.93101   0.93741   0.94069
 Alpha virt. eigenvalues --    0.94582   0.94992   0.95293   0.95407   0.95637
 Alpha virt. eigenvalues --    0.96174   0.96294   0.96767   0.97033   0.97136
 Alpha virt. eigenvalues --    0.97328   0.97543   0.97994   0.98126   0.98642
 Alpha virt. eigenvalues --    0.99098   0.99435   0.99894   1.00457   1.00946
 Alpha virt. eigenvalues --    1.01811   1.02122   1.02483   1.03279   1.03605
 Alpha virt. eigenvalues --    1.04486   1.04552   1.05265   1.05553   1.06069
 Alpha virt. eigenvalues --    1.06627   1.06893   1.07440   1.08535   1.09021
 Alpha virt. eigenvalues --    1.10014   1.10902   1.11583   1.11929   1.12168
 Alpha virt. eigenvalues --    1.12583   1.13741   1.13845   1.14783   1.15262
 Alpha virt. eigenvalues --    1.16028   1.16810   1.16987   1.18040   1.18443
 Alpha virt. eigenvalues --    1.19395   1.19674   1.20598   1.20882   1.21238
 Alpha virt. eigenvalues --    1.21884   1.22122   1.23011   1.23620   1.23999
 Alpha virt. eigenvalues --    1.24352   1.25263   1.25697   1.25971   1.26990
 Alpha virt. eigenvalues --    1.28037   1.28832   1.30520   1.30814   1.31670
 Alpha virt. eigenvalues --    1.32268   1.32561   1.32756   1.33213   1.34672
 Alpha virt. eigenvalues --    1.35366   1.35777   1.36513   1.37436   1.37966
 Alpha virt. eigenvalues --    1.39506   1.40016   1.40191   1.40837   1.41960
 Alpha virt. eigenvalues --    1.42560   1.43217   1.44368   1.44824   1.45385
 Alpha virt. eigenvalues --    1.45471   1.45766   1.46240   1.46497   1.47154
 Alpha virt. eigenvalues --    1.47705   1.48217   1.48607   1.49164   1.49179
 Alpha virt. eigenvalues --    1.49598   1.49746   1.51047   1.51604   1.53186
 Alpha virt. eigenvalues --    1.53319   1.55591   1.55900   1.57796   1.59326
 Alpha virt. eigenvalues --    1.59565   1.60811   1.61131   1.61928   1.62219
 Alpha virt. eigenvalues --    1.63483   1.64124   1.64683   1.65062   1.66204
 Alpha virt. eigenvalues --    1.66692   1.67196   1.67459   1.67884   1.68339
 Alpha virt. eigenvalues --    1.68974   1.70533   1.71117   1.72011   1.72753
 Alpha virt. eigenvalues --    1.73910   1.74556   1.76177   1.76623   1.77232
 Alpha virt. eigenvalues --    1.77862   1.78527   1.78713   1.78900   1.79663
 Alpha virt. eigenvalues --    1.80053   1.80596   1.81210   1.81987   1.82346
 Alpha virt. eigenvalues --    1.82479   1.82927   1.83357   1.83712   1.83976
 Alpha virt. eigenvalues --    1.84756   1.85271   1.85869   1.86639   1.86863
 Alpha virt. eigenvalues --    1.87546   1.87908   1.88249   1.88418   1.89794
 Alpha virt. eigenvalues --    1.90623   1.91248   1.91371   1.91637   1.91934
 Alpha virt. eigenvalues --    1.92155   1.92405   1.92493   1.92928   1.93122
 Alpha virt. eigenvalues --    1.93472   1.94015   1.94244   1.94462   1.94590
 Alpha virt. eigenvalues --    1.94906   1.95557   1.95938   1.96138   1.97000
 Alpha virt. eigenvalues --    1.97659   1.97826   1.98298   1.99842   1.99948
 Alpha virt. eigenvalues --    2.00624   2.00959   2.02288   2.02404   2.02760
 Alpha virt. eigenvalues --    2.03290   2.04270   2.04706   2.05061   2.05813
 Alpha virt. eigenvalues --    2.06326   2.06743   2.07043   2.07573   2.07807
 Alpha virt. eigenvalues --    2.07912   2.08596   2.09760   2.10414   2.10449
 Alpha virt. eigenvalues --    2.10845   2.11504   2.11870   2.12474   2.13007
 Alpha virt. eigenvalues --    2.13458   2.13725   2.14224   2.14814   2.15046
 Alpha virt. eigenvalues --    2.15484   2.16202   2.16268   2.17083   2.17862
 Alpha virt. eigenvalues --    2.18038   2.18440   2.18805   2.19017   2.19404
 Alpha virt. eigenvalues --    2.19850   2.20062   2.20352   2.20652   2.21199
 Alpha virt. eigenvalues --    2.21935   2.22505   2.22700   2.23082   2.23302
 Alpha virt. eigenvalues --    2.23591   2.23971   2.24106   2.24908   2.25322
 Alpha virt. eigenvalues --    2.25637   2.26410   2.26690   2.26928   2.27166
 Alpha virt. eigenvalues --    2.27626   2.28067   2.28489   2.29139   2.30017
 Alpha virt. eigenvalues --    2.30689   2.31973   2.32031   2.32225   2.32774
 Alpha virt. eigenvalues --    2.33393   2.33628   2.33934   2.34612   2.35167
 Alpha virt. eigenvalues --    2.35585   2.36751   2.37578   2.39040   2.39196
 Alpha virt. eigenvalues --    2.39991   2.40817   2.42614   2.43041   2.44079
 Alpha virt. eigenvalues --    2.45241   2.46402   2.47393   2.48028   2.48932
 Alpha virt. eigenvalues --    2.49052   2.49522   2.49932   2.50047   2.50942
 Alpha virt. eigenvalues --    2.52177   2.53674   2.54069   2.55682   2.57532
 Alpha virt. eigenvalues --    2.59338   2.60659   2.61002   2.61868   2.62316
 Alpha virt. eigenvalues --    2.63054   2.64343   2.64810   2.65188   2.65830
 Alpha virt. eigenvalues --    2.66097   2.68374   2.69212   2.69806   2.70604
 Alpha virt. eigenvalues --    2.72492   2.74307   2.78134   2.78238   2.78440
 Alpha virt. eigenvalues --    2.78682   2.79759   2.80509   2.80869   2.81060
 Alpha virt. eigenvalues --    2.81415   2.81493   2.81997   2.82928   2.84134
 Alpha virt. eigenvalues --    2.84991   2.85576   2.88343   2.88955   2.89571
 Alpha virt. eigenvalues --    2.91853   2.93522   2.95205   2.96344   2.97222
 Alpha virt. eigenvalues --    2.98171   2.99514   3.02731   3.03099   3.04877
 Alpha virt. eigenvalues --    3.07124   3.09698   3.12032   3.12500   3.13411
 Alpha virt. eigenvalues --    3.21176   3.25311   3.31185   3.45076  13.19018
          Condensed to atoms (all electrons):
 Mulliken charges:
               1
     1  C    0.316366
     2  C    0.108244
     3  C   -0.153959
     4  C   -0.131388
     5  C   -0.183697
     6  C    0.286551
     7  C    0.054170
     8  C   -0.172306
     9  C   -0.145999
    10  C   -0.188503
    11  H    0.218105
    12  H    0.179434
    13  H    0.164233
    14  H    0.209079
    15  H    0.180665
    16  H    0.170579
    17  N   -0.547537
    18  N   -0.473250
    19  Ir  -0.121974
    20  O   -0.517408
    21  O   -0.500783
    22  O   -0.515589
    23  B    0.471988
    24  B    0.466811
    25  B    0.470748
    26  O   -0.553914
    27  O   -0.519019
    28  C    0.290629
    29  C    0.302842
    30  C    0.302159
    31  C    0.296827
    32  C    0.291384
    33  C    0.299646
    34  O   -0.517761
    35  C   -0.512418
    36  H    0.176311
    37  H    0.147280
    38  H    0.167311
    39  C   -0.515518
    40  H    0.155998
    41  H    0.149394
    42  H    0.182482
    43  C   -0.500743
    44  H    0.184186
    45  H    0.163927
    46  H    0.140499
    47  C   -0.506797
    48  H    0.148867
    49  H    0.170198
    50  H    0.158806
    51  C   -0.506748
    52  H    0.140243
    53  H    0.184541
    54  H    0.172451
    55  C   -0.512018
    56  H    0.170848
    57  H    0.166551
    58  H    0.146968
    59  C   -0.506874
    60  H    0.150483
    61  H    0.166250
    62  H    0.165381
    63  C   -0.510942
    64  H    0.168548
    65  H    0.149507
    66  H    0.172379
    67  C   -0.520669
    68  H    0.200947
    69  H    0.151890
    70  H    0.163736
    71  C   -0.510925
    72  H    0.164322
    73  H    0.165327
    74  H    0.154173
    75  C   -0.506082
    76  H    0.157098
    77  H    0.152415
    78  H    0.175420
    79  C   -0.509706
    80  H    0.168125
    81  H    0.147095
    82  H    0.177030
    83  H    0.196120
    84  C    0.578195
    85  O   -0.522977
    86  C   -0.394374
    87  H    0.148604
    88  H    0.171093
    89  C   -0.357790
    90  H    0.247099
    91  H    0.176339
    92  N   -0.366826
    93  C   -0.391192
    94  H    0.163677
    95  H    0.156705
    96  H    0.225257
    97  C   -0.474741
    98  H    0.182356
    99  H    0.157359
   100  H    0.181053
   101  H    0.180974
   102  H    0.148151
 Sum of Mulliken charges =  -0.00000
 Mulliken charges with hydrogens summed into heavy atoms:
               1
     1  C    0.316366
     2  C    0.326349
     3  C    0.027015
     4  C    0.048046
     5  C   -0.019464
     6  C    0.286551
     7  C    0.263250
     8  C    0.008746
     9  C    0.034667
    10  C   -0.017924
    17  N   -0.547537
    18  N   -0.473250
    19  Ir   0.074146
    20  O   -0.517408
    21  O   -0.500783
    22  O   -0.515589
    23  B    0.471988
    24  B    0.466811
    25  B    0.470748
    26  O   -0.553914
    27  O   -0.519019
    28  C    0.290629
    29  C    0.302842
    30  C    0.302159
    31  C    0.296827
    32  C    0.291384
    33  C    0.299646
    34  O   -0.517761
    35  C   -0.021516
    39  C   -0.027644
    43  C   -0.012131
    47  C   -0.028925
    51  C   -0.009513
    55  C   -0.027652
    59  C   -0.024760
    63  C   -0.020508
    67  C   -0.004096
    71  C   -0.027103
    75  C   -0.021149
    79  C   -0.017456
    84  C    0.578195
    85  O   -0.522977
    86  C   -0.074677
    89  C    0.065648
    92  N   -0.366826
    93  C    0.154446
    97  C    0.013124
 APT charges:
               1
     1  C    0.150205
     2  C    0.057086
     3  C   -0.034557
     4  C    0.110028
     5  C   -0.183698
     6  C    0.214630
     7  C    0.076171
     8  C   -0.052403
     9  C    0.100365
    10  C   -0.190825
    11  H    0.123833
    12  H    0.030320
    13  H    0.038901
    14  H    0.078057
    15  H    0.029821
    16  H    0.042277
    17  N   -0.100369
    18  N   -0.178569
    19  Ir  -0.888371
    20  O   -0.981949
    21  O   -0.956444
    22  O   -1.029154
    23  B    1.290025
    24  B    1.275851
    25  B    1.549717
    26  O   -1.055867
    27  O   -0.984618
    28  C    0.488860
    29  C    0.499486
    30  C    0.520970
    31  C    0.539794
    32  C    0.472309
    33  C    0.474438
    34  O   -0.978616
    35  C   -0.009088
    36  H    0.003968
    37  H   -0.019986
    38  H   -0.001210
    39  C   -0.037372
    40  H   -0.006744
    41  H   -0.022306
    42  H    0.021321
    43  C   -0.040458
    44  H    0.026306
    45  H    0.001841
    46  H   -0.031110
    47  C    0.005107
    48  H   -0.022423
    49  H    0.000596
    50  H   -0.010929
    51  C   -0.033094
    52  H   -0.029116
    53  H    0.024470
    54  H    0.000435
    55  C   -0.004939
    56  H   -0.001919
    57  H   -0.003057
    58  H   -0.018523
    59  C    0.005221
    60  H   -0.023262
    61  H    0.000034
    62  H   -0.006663
    63  C   -0.034128
    64  H   -0.001034
    65  H   -0.023470
    66  H    0.002791
    67  C   -0.044327
    68  H    0.017263
    69  H   -0.023188
    70  H   -0.000535
    71  C   -0.014683
    72  H    0.000982
    73  H   -0.002322
    74  H   -0.014136
    75  C   -0.045578
    76  H   -0.002480
    77  H   -0.026279
    78  H    0.009540
    79  C   -0.010004
    80  H   -0.000767
    81  H   -0.020680
    82  H    0.011431
    83  H    0.023733
    84  C    0.819078
    85  O   -0.674625
    86  C    0.019222
    87  H   -0.027644
    88  H   -0.026263
    89  C    0.123592
    90  H    0.055509
    91  H   -0.061082
    92  N   -0.704086
    93  C    0.225004
    94  H   -0.050077
    95  H   -0.024805
    96  H    0.088329
    97  C    0.070948
    98  H    0.007511
    99  H    0.000149
   100  H    0.036387
   101  H    0.041926
   102  H   -0.036007
 Sum of APT charges =  -0.00000
 APT charges with hydrogens summed into heavy atoms:
               1
     1  C    0.150205
     2  C    0.180919
     3  C    0.007369
     4  C    0.140348
     5  C   -0.144797
     6  C    0.214630
     7  C    0.154229
     8  C   -0.016016
     9  C    0.130186
    10  C   -0.148548
    17  N   -0.100369
    18  N   -0.178569
    19  Ir  -0.864638
    20  O   -0.981949
    21  O   -0.956444
    22  O   -1.029154
    23  B    1.290025
    24  B    1.275851
    25  B    1.549717
    26  O   -1.055867
    27  O   -0.984618
    28  C    0.488860
    29  C    0.499486
    30  C    0.520970
    31  C    0.539794
    32  C    0.472309
    33  C    0.474438
    34  O   -0.978616
    35  C   -0.026317
    39  C   -0.045101
    43  C   -0.043421
    47  C   -0.027649
    51  C   -0.037305
    55  C   -0.028438
    59  C   -0.024670
    63  C   -0.055840
    67  C   -0.050786
    71  C   -0.030159
    75  C   -0.064797
    79  C   -0.020019
    84  C    0.819078
    85  O   -0.674625
    86  C   -0.034685
    89  C    0.118020
    92  N   -0.704086
    93  C    0.238451
    97  C    0.042600
 Electronic spatial extent (au):  <R**2>=          23841.3898
 Charge=             -0.0000 electrons
 Dipole moment (field-independent basis, Debye):
    X=              3.8093    Y=             -2.4925    Z=             -2.6382  Tot=              5.2615
 Quadrupole moment (field-independent basis, Debye-Ang):
   XX=           -272.5267   YY=           -269.1031   ZZ=           -294.6553
   XY=             -6.8339   XZ=            -17.6610   YZ=             -4.0474
 Traceless Quadrupole moment (field-independent basis, Debye-Ang):
   XX=              6.2350   YY=              9.6586   ZZ=            -15.8936
   XY=             -6.8339   XZ=            -17.6610   YZ=             -4.0474
 Octapole moment (field-independent basis, Debye-Ang**2):
  XXX=             65.2940  YYY=             -1.7839  ZZZ=            -60.0889  XYY=             41.8666
  XXY=            -42.5499  XXZ=            -50.7030  XZZ=              0.8201  YZZ=            -10.2182
  YYZ=              6.2039  XYZ=              1.3566
 Hexadecapole moment (field-independent basis, Debye-Ang**3):
 XXXX=         -13024.3736 YYYY=         -11049.5323 ZZZZ=          -7023.8832 XXXY=           -104.0324
 XXXZ=           -197.4333 YYYX=           -131.2311 YYYZ=           -204.7884 ZZZX=           -251.7359
 ZZZY=            -76.9603 XXYY=          -3992.7549 XXZZ=          -3254.7576 YYZZ=          -2977.4614
 XXYZ=            145.9741 YYXZ=             70.8229 ZZXY=             -6.4009
 N-N= 7.459145285315D+03 E-N=-1.992353833346D+04  KE= 2.074821356639D+03
  Exact polarizability:     477.526     -30.478     470.119     -30.383     -29.515     432.816
 Approx polarizability:     658.191     -48.702     672.551     -66.108     -69.551     679.699
   1 Symmetry operations used in ECPInt.
 ECPInt:  NShTT=   45753 NPrTT=  276657 LenC2=   36277 LenP2D=  113420.
 LDataN:  DoStor=T MaxTD1= 8 Len=  415
 Calling FoFJK, ICntrl=    100127 FMM=F ISym2X=0 I1Cent= 0 IOpClX= 0 NMat=1 NMatS=1 NMatT=0.
 Defaulting to unpruned grid for atomic number  77.
 Defaulting to unpruned grid for atomic number  77.
 Defaulting to unpruned grid for atomic number  77.
 Defaulting to unpruned grid for atomic number  77.
 Defaulting to unpruned grid for atomic number  77.
 Defaulting to unpruned grid for atomic number  77.
 Defaulting to unpruned grid for atomic number  77.
 Defaulting to unpruned grid for atomic number  77.
 Defaulting to unpruned grid for atomic number  77.
 Defaulting to unpruned grid for atomic number  77.
 Defaulting to unpruned grid for atomic number  77.
 Defaulting to unpruned grid for atomic number  77.
 Defaulting to unpruned grid for atomic number  77.
 Defaulting to unpruned grid for atomic number  77.
 Defaulting to unpruned grid for atomic number  77.
 Defaulting to unpruned grid for atomic number  77.
 Full mass-weighted force constant matrix:
 Low frequencies ---  -78.3908   -0.0007   -0.0002    0.0002    4.4428    6.0555
 Low frequencies ---    8.4511   23.7634   26.4358
 ******    1 imaginary frequencies (negative Signs) ****** 
 Diagonal vibrational polarizability:
      116.4805903     114.6786739      88.0858018
 Harmonic frequencies (cm**-1), IR intensities (KM/Mole), Raman scattering
 activities (A**4/AMU), depolarization ratios for plane and unpolarized
 incident light, reduced masses (AMU), force constants (mDyne/A),
 and normal coordinates:
                      1                      2                      3
                      A                      A                      A
 Frequencies --    -78.3898                23.3090                26.4290
 Red. masses --      6.3278                 4.6133                 4.8693
 Frc consts  --      0.0229                 0.0015                 0.0020
 IR Inten    --     14.6281                 0.8509                 0.4263
  Atom AN      X      Y      Z        X      Y      Z        X      Y      Z
     1   6     0.00  -0.02   0.00    -0.05  -0.03  -0.01    -0.01  -0.00  -0.06
     2   6     0.02  -0.01   0.02    -0.00   0.04   0.03    -0.04  -0.05  -0.08
     3   6     0.03  -0.01   0.02    -0.02   0.02   0.02    -0.06  -0.08  -0.11
     4   6     0.02  -0.01   0.01    -0.06  -0.02  -0.01    -0.06  -0.07  -0.12
     5   6     0.01  -0.02   0.00    -0.07  -0.04  -0.02    -0.03  -0.03  -0.09
     6   6    -0.00  -0.02  -0.00    -0.06  -0.05  -0.03     0.02   0.04  -0.02
     7   6     0.00  -0.00   0.01    -0.03  -0.01  -0.00     0.04   0.07   0.01
     8   6     0.00  -0.00   0.01    -0.07  -0.07  -0.04     0.08   0.11   0.04
     9   6    -0.00  -0.01  -0.00    -0.12  -0.11  -0.08     0.09   0.12   0.04
    10   6    -0.00  -0.02  -0.01    -0.11  -0.10  -0.07     0.06   0.08   0.01
    11   1     0.02  -0.00   0.02     0.03   0.07   0.05    -0.05  -0.06  -0.08
    12   1     0.02  -0.01   0.01    -0.07  -0.03  -0.01    -0.08  -0.09  -0.15
    13   1     0.00  -0.02  -0.00    -0.10  -0.07  -0.04    -0.03  -0.03  -0.09
    14   1    -0.00  -0.00   0.02     0.01   0.02   0.02     0.04   0.07   0.01
    15   1    -0.00  -0.00  -0.01    -0.16  -0.15  -0.11     0.12   0.15   0.06
    16   1    -0.01  -0.02  -0.01    -0.15  -0.14  -0.10     0.07   0.09   0.01
    17   7     0.01  -0.02   0.01    -0.02   0.01   0.01    -0.01  -0.01  -0.06
    18   7     0.00  -0.01   0.00    -0.02  -0.01   0.00     0.02   0.04  -0.02
    19  77    -0.02  -0.03  -0.01     0.01   0.03   0.02    -0.01   0.01  -0.03
    20   8    -0.01  -0.00  -0.02    -0.03   0.04  -0.00     0.01   0.02  -0.02
    21   8    -0.01   0.02  -0.01     0.06  -0.04   0.00    -0.03  -0.07   0.01
    22   8     0.13  -0.01   0.14     0.01   0.02   0.05     0.01   0.01   0.00
    23   5    -0.01   0.02  -0.01     0.02   0.01   0.02    -0.02  -0.01   0.01
    24   5    -0.02  -0.02  -0.02    -0.01   0.03  -0.00    -0.00   0.01  -0.02
    25   5     0.23   0.00   0.22     0.01   0.03   0.03     0.02   0.01   0.01
    26   8     0.14   0.01   0.14    -0.01   0.04   0.02     0.03   0.02   0.02
    27   8    -0.03  -0.01  -0.01    -0.00  -0.00  -0.03    -0.01   0.01  -0.02
    28   6    -0.01  -0.00  -0.00    -0.03   0.00  -0.05     0.00   0.02  -0.01
    29   6    -0.00   0.00  -0.01    -0.04   0.03  -0.03     0.02   0.03  -0.01
    30   6     0.04  -0.02   0.06     0.01   0.03   0.06     0.02   0.01   0.01
    31   6     0.03  -0.06   0.06    -0.01   0.04   0.04     0.04   0.02   0.02
    32   6    -0.00   0.01  -0.01     0.08  -0.06  -0.00    -0.02  -0.09   0.06
    33   6     0.00   0.01  -0.01     0.07  -0.03   0.03     0.01  -0.03   0.11
    34   8    -0.00   0.01  -0.01     0.02   0.02   0.03    -0.00   0.02   0.07
    35   6     0.01   0.01  -0.01    -0.08   0.04  -0.04     0.04   0.06  -0.02
    36   1     0.01   0.01  -0.02    -0.09   0.05  -0.04     0.04   0.05  -0.04
    37   1     0.01   0.01   0.00    -0.09   0.03  -0.06     0.04   0.07  -0.00
    38   1     0.02   0.01  -0.01    -0.09   0.06  -0.02     0.04   0.06  -0.01
    39   6    -0.00   0.00   0.00    -0.02   0.02  -0.02     0.01   0.04   0.02
    40   1     0.00   0.00   0.00    -0.02   0.04  -0.00     0.01   0.05   0.02
    41   1    -0.00   0.01   0.01    -0.02   0.00  -0.04     0.01   0.05   0.04
    42   1    -0.01  -0.00   0.01     0.01   0.01  -0.02    -0.01   0.02   0.03
    43   6     0.00  -0.00  -0.01    -0.06   0.01  -0.07     0.01   0.02  -0.03
    44   1     0.01  -0.01  -0.03    -0.06   0.02  -0.05     0.01   0.02  -0.04
    45   1    -0.01  -0.01  -0.01    -0.04  -0.01  -0.08     0.00   0.01  -0.03
    46   1     0.02   0.01  -0.01    -0.08   0.01  -0.09     0.01   0.03  -0.03
    47   6    -0.02   0.00   0.02    -0.02  -0.02  -0.07     0.00   0.02   0.01
    48   1    -0.01   0.01   0.02    -0.04  -0.02  -0.09     0.01   0.03   0.01
    49   1    -0.02   0.00   0.02    -0.01  -0.04  -0.09    -0.00   0.01   0.00
    50   1    -0.02   0.00   0.02     0.00  -0.03  -0.07    -0.00   0.01   0.02
    51   6    -0.01   0.00  -0.01     0.06  -0.08  -0.06    -0.03  -0.09   0.04
    52   1    -0.00  -0.00  -0.01     0.07  -0.10  -0.06    -0.02  -0.11   0.07
    53   1    -0.01   0.00  -0.01     0.02  -0.04  -0.07    -0.03  -0.05   0.01
    54   1    -0.01   0.01  -0.01     0.06  -0.10  -0.08    -0.05  -0.13  -0.00
    55   6     0.00   0.01  -0.01     0.13  -0.10   0.01    -0.02  -0.16   0.09
    56   1     0.00   0.01  -0.01     0.14  -0.13  -0.02    -0.04  -0.20   0.06
    57   1     0.01   0.02  -0.01     0.15  -0.09   0.05    -0.01  -0.16   0.11
    58   1     0.01   0.01  -0.01     0.15  -0.12   0.01    -0.01  -0.17   0.13
    59   6     0.00   0.00  -0.01     0.07  -0.04   0.00     0.02  -0.03   0.14
    60   1     0.00   0.00  -0.01     0.10  -0.08  -0.00     0.03  -0.08   0.17
    61   1     0.00   0.00  -0.01     0.06  -0.02   0.03     0.04   0.02   0.17
    62   1     0.00   0.00  -0.01     0.03  -0.05  -0.03     0.00  -0.02   0.10
    63   6     0.01   0.01  -0.01     0.13  -0.01   0.09     0.03  -0.04   0.16
    64   1     0.00   0.01  -0.01     0.10   0.02   0.12     0.04   0.01   0.19
    65   1     0.01   0.01  -0.01     0.19  -0.03   0.08     0.05  -0.08   0.19
    66   1     0.01   0.02  -0.01     0.15   0.01   0.14     0.03  -0.04   0.15
    67   6     0.02  -0.19   0.09    -0.03   0.05   0.06     0.05   0.03   0.01
    68   1     0.06  -0.22   0.15    -0.03   0.05   0.07     0.05   0.03  -0.01
    69   1    -0.05  -0.23   0.04    -0.03   0.05   0.07     0.06   0.03   0.01
    70   1     0.02  -0.21   0.11    -0.05   0.06   0.05     0.07   0.04   0.01
    71   6    -0.04   0.00  -0.02    -0.02   0.04   0.04     0.04   0.02   0.05
    72   1    -0.02   0.10  -0.04    -0.01   0.04   0.02     0.03   0.01   0.06
    73   1    -0.04  -0.03  -0.02    -0.03   0.05   0.03     0.06   0.03   0.05
    74   1    -0.11  -0.03  -0.07    -0.02   0.04   0.05     0.05   0.02   0.05
    75   6     0.04   0.10  -0.00     0.03   0.01   0.05     0.00   0.00   0.03
    76   1     0.07   0.16  -0.00     0.03   0.01   0.03     0.00   0.00   0.04
    77   1    -0.03   0.10  -0.07     0.02   0.01   0.06     0.01   0.01   0.04
    78   1     0.06   0.12   0.01     0.04   0.00   0.06    -0.01  -0.00   0.03
    79   6    -0.00  -0.08   0.03     0.01   0.03   0.09     0.02   0.01   0.00
    80   1     0.01  -0.03   0.02     0.03   0.03   0.09     0.01   0.01  -0.00
    81   1    -0.06  -0.10  -0.05     0.01   0.03   0.09     0.03   0.01   0.01
    82   1     0.00  -0.16   0.08    -0.00   0.04   0.10     0.03   0.02  -0.01
    83   1     0.04   0.08   0.05     0.01   0.02   0.01    -0.00   0.01  -0.03
    84   6    -0.05   0.10  -0.06     0.02  -0.02  -0.04    -0.05  -0.03   0.00
    85   8    -0.09   0.13  -0.07     0.04  -0.02  -0.03    -0.07  -0.05  -0.03
    86   6    -0.06   0.03  -0.03     0.01  -0.04  -0.08    -0.04  -0.03   0.03
    87   1    -0.06   0.01  -0.02    -0.01  -0.03  -0.08    -0.02  -0.01   0.02
    88   1    -0.03   0.01  -0.03     0.03  -0.05  -0.08    -0.04  -0.04   0.06
    89   6     0.03   0.21  -0.10     0.02   0.01   0.01    -0.02   0.00  -0.01
    90   1    -0.04   0.14  -0.16     0.04   0.01   0.01    -0.04  -0.01  -0.02
    91   1     0.11   0.18   0.07     0.04   0.01   0.01    -0.02  -0.00   0.02
    92   7     0.01   0.11  -0.09     0.02  -0.00  -0.02    -0.02  -0.00   0.01
    93   6     0.07   0.06  -0.07     0.01  -0.01  -0.04     0.01   0.02   0.05
    94   1     0.10   0.02  -0.05     0.03  -0.03  -0.06    -0.01   0.01   0.08
    95   1     0.05   0.02  -0.05    -0.02  -0.02  -0.06     0.02   0.03   0.05
    96   1     0.13   0.09  -0.09    -0.00   0.00  -0.02     0.03   0.03   0.04
    97   6    -0.12   0.03  -0.00     0.02  -0.05  -0.10    -0.07  -0.06   0.02
    98   1    -0.12   0.05  -0.01     0.05  -0.06  -0.09    -0.09  -0.08   0.02
    99   1    -0.15   0.05  -0.00     0.01  -0.04  -0.09    -0.08  -0.05  -0.02
   100   1     0.00   0.01   0.01    -0.07  -0.07  -0.05     0.10   0.14   0.06
   101   1     0.03  -0.00   0.02    -0.01   0.04   0.04    -0.08  -0.11  -0.14
   102   1    -0.12  -0.00   0.02     0.02  -0.07  -0.12    -0.07  -0.06   0.04
                      4                      5                      6
                      A                      A                      A
 Frequencies --     35.2233                37.6796                39.0881
 Red. masses --      4.5910                 3.7542                 4.4876
 Frc consts  --      0.0034                 0.0031                 0.0040
 IR Inten    --      0.3019                 0.2337                 0.5428
  Atom AN      X      Y      Z        X      Y      Z        X      Y      Z
     1   6     0.02   0.03  -0.03    -0.02  -0.01   0.02     0.04   0.03   0.03
     2   6     0.04   0.02  -0.01    -0.02   0.02   0.02     0.01   0.00  -0.00
     3   6     0.07   0.04   0.00    -0.04   0.02   0.02     0.05   0.05   0.04
     4   6     0.09   0.07   0.01    -0.04  -0.00   0.03     0.09   0.08   0.08
     5   6     0.06   0.06  -0.01    -0.03  -0.01   0.03     0.08   0.07   0.07
     6   6    -0.02   0.01  -0.06     0.00  -0.02   0.03     0.03   0.01   0.02
     7   6    -0.07  -0.01  -0.07     0.04  -0.02   0.02    -0.02  -0.04  -0.04
     8   6    -0.11  -0.04  -0.11     0.05  -0.02   0.05    -0.00  -0.03  -0.02
     9   6    -0.12  -0.05  -0.14     0.04  -0.02   0.06     0.04   0.01   0.02
    10   6    -0.07  -0.03  -0.11     0.02  -0.01   0.05     0.05   0.03   0.04
    11   1     0.03   0.00  -0.01    -0.01   0.03   0.01    -0.03  -0.02  -0.03
    12   1     0.12   0.09   0.02    -0.06  -0.00   0.04     0.13   0.12   0.11
    13   1     0.08   0.08  -0.00    -0.04  -0.03   0.03     0.11   0.10   0.10
    14   1    -0.07   0.00  -0.05     0.04  -0.02   0.01    -0.05  -0.08  -0.07
    15   1    -0.16  -0.08  -0.18     0.06  -0.02   0.08     0.05   0.03   0.04
    16   1    -0.08  -0.04  -0.14     0.01  -0.01   0.07     0.08   0.06   0.06
    17   7     0.01   0.01  -0.02    -0.01   0.01   0.01     0.01  -0.00  -0.01
    18   7    -0.03   0.01  -0.04     0.01  -0.02   0.01    -0.01  -0.02  -0.02
    19  77    -0.01   0.01  -0.02     0.00   0.00  -0.01    -0.01  -0.02  -0.03
    20   8     0.01  -0.00  -0.01    -0.01   0.04  -0.02    -0.03  -0.01  -0.04
    21   8    -0.04   0.01   0.00    -0.11   0.07   0.04    -0.02  -0.05  -0.02
    22   8     0.01   0.01  -0.02     0.01  -0.00   0.01     0.01  -0.03   0.05
    23   5    -0.00   0.00  -0.01    -0.02   0.01   0.00    -0.03  -0.02  -0.02
    24   5    -0.00  -0.00  -0.01    -0.00   0.01  -0.02    -0.02  -0.01  -0.04
    25   5     0.01   0.01  -0.00     0.01   0.00  -0.00    -0.00  -0.02   0.01
    26   8     0.04   0.00   0.02     0.00   0.01   0.00    -0.01   0.00   0.01
    27   8    -0.01  -0.02   0.00    -0.00  -0.01  -0.03    -0.01   0.01  -0.05
    28   6    -0.00  -0.02   0.01    -0.02  -0.01  -0.04    -0.01   0.02  -0.05
    29   6     0.01  -0.01   0.00    -0.01   0.03  -0.03    -0.03   0.01  -0.05
    30   6     0.03   0.01   0.00     0.01   0.00   0.02     0.03  -0.02   0.10
    31   6     0.07   0.02   0.02     0.01   0.01   0.02     0.01   0.03   0.08
    32   6    -0.02  -0.02   0.02    -0.07   0.02   0.06    -0.04  -0.03  -0.00
    33   6     0.03  -0.03   0.00     0.05  -0.03  -0.02    -0.06  -0.00   0.03
    34   8     0.03  -0.02  -0.01     0.06  -0.05  -0.02    -0.04   0.00   0.01
    35   6     0.02  -0.01   0.00    -0.03   0.05  -0.04    -0.03   0.02  -0.05
    36   1     0.01  -0.01  -0.00    -0.05   0.06  -0.05    -0.02   0.01  -0.05
    37   1     0.02  -0.02   0.01    -0.03   0.04  -0.05    -0.03   0.04  -0.06
    38   1     0.03  -0.00   0.00    -0.02   0.07  -0.02    -0.04   0.02  -0.04
    39   6     0.03  -0.02   0.01     0.01   0.02  -0.00    -0.05   0.02  -0.04
    40   1     0.04  -0.01   0.01     0.02   0.04   0.01    -0.06   0.02  -0.03
    41   1     0.03  -0.02   0.02     0.01   0.01  -0.01    -0.06   0.04  -0.05
    42   1     0.02  -0.02   0.01     0.03  -0.00   0.01    -0.05   0.02  -0.04
    43   6    -0.01  -0.02   0.00    -0.05   0.00  -0.07     0.00   0.02  -0.05
    44   1    -0.01  -0.01  -0.00    -0.05   0.02  -0.07     0.00   0.00  -0.04
    45   1    -0.01  -0.02   0.00    -0.05  -0.02  -0.08     0.02   0.02  -0.06
    46   1    -0.00  -0.02   0.00    -0.06   0.00  -0.08    -0.00   0.03  -0.06
    47   6    -0.00  -0.03   0.02    -0.01  -0.04  -0.05    -0.01   0.04  -0.07
    48   1     0.01  -0.03   0.03    -0.02  -0.03  -0.06    -0.02   0.05  -0.07
    49   1    -0.01  -0.03   0.02    -0.02  -0.06  -0.06     0.00   0.04  -0.07
    50   1     0.00  -0.03   0.03     0.01  -0.05  -0.03    -0.03   0.04  -0.06
    51   6    -0.03  -0.06   0.06    -0.10  -0.07   0.18    -0.02   0.01  -0.03
    52   1    -0.02  -0.08   0.08    -0.07  -0.12   0.19    -0.03   0.02  -0.02
    53   1    -0.02  -0.06   0.06    -0.07  -0.13   0.20    -0.02   0.03  -0.04
    54   1    -0.07  -0.05   0.07    -0.19  -0.02   0.23     0.00  -0.01  -0.05
    55   6    -0.04  -0.01   0.02    -0.12   0.10   0.03    -0.04  -0.06   0.01
    56   1    -0.08  -0.00   0.03    -0.21   0.13   0.09    -0.02  -0.08  -0.01
    57   1    -0.03   0.02  -0.01    -0.11   0.17  -0.06    -0.05  -0.09   0.03
    58   1    -0.02  -0.03   0.03    -0.08   0.05   0.03    -0.06  -0.05   0.03
    59   6     0.06  -0.07   0.02     0.12  -0.14   0.02    -0.08   0.05   0.04
    60   1     0.06  -0.08   0.03     0.10  -0.13   0.03    -0.09   0.04   0.06
    61   1     0.10  -0.07   0.01     0.20  -0.16  -0.04    -0.10   0.07   0.07
    62   1     0.05  -0.09   0.05     0.11  -0.19   0.11    -0.07   0.07   0.01
    63   6     0.05   0.00  -0.03     0.07   0.04  -0.14    -0.10  -0.04   0.06
    64   1     0.08  -0.00  -0.05     0.15  -0.00  -0.20    -0.10  -0.02   0.08
    65   1     0.05  -0.00  -0.03     0.06   0.05  -0.15    -0.12  -0.05   0.09
    66   1     0.03   0.03  -0.05     0.02   0.11  -0.17    -0.09  -0.09   0.04
    67   6     0.11   0.05  -0.02     0.01   0.03   0.02    -0.00   0.10   0.08
    68   1     0.09   0.06  -0.06     0.01   0.03   0.01    -0.01   0.11   0.06
    69   1     0.14   0.06  -0.02     0.01   0.04   0.03     0.02   0.12   0.13
    70   1     0.14   0.06  -0.01     0.01   0.04   0.01    -0.02   0.13   0.06
    71   6     0.10   0.00   0.07     0.01   0.01   0.03     0.03   0.02   0.11
    72   1     0.08  -0.03   0.10     0.01   0.00   0.03     0.04  -0.03   0.10
    73   1     0.13   0.01   0.08     0.01   0.02   0.02     0.01   0.05   0.09
    74   1     0.13   0.01   0.07     0.02   0.02   0.04     0.05   0.03   0.16
    75   6     0.00  -0.01   0.04     0.01  -0.01   0.03     0.06  -0.08   0.11
[...]
 00000294,-0.00000060,-0.00000498,-0.00000196,0.00000640,0.00000516,0.0
 0000984,-0.00000904,0.00000417,-0.00000210,0.00000573,-0.00001198,-0.0
 0000006,-0.00000026,-0.00000017,0.00000078,-0.00000077,-0.00000002,0.0
 0000041,-0.00000445,-0.00000111,0.00000850,-0.00000119,-0.00000151,-0.
 00000734,0.00000307,0.00000044,-0.00000160,-0.00000438,0.00000186,0.00
 000066,0.00000178,-0.00000213,0.00000399,-0.00000538,0.00000080,-0.000
 00169,-0.00000014,-0.00000091,0.00000012,0.00000061,-0.00000034,-0.000
 00149,-0.00000330,0.00000173,-0.00000158,-0.00000818,0.00000531,-0.000
 00024,0.00000129,0.00000234,-0.00000313,-0.00000243,-0.00000243,0.0000
 0283,-0.00000133,-0.00000253,-0.00000383,-0.00000211,0.00000078,0.0000
 0125,-0.00000252,-0.00000346,0.00000237,-0.00000164,0.00000019,-0.0000
 0220,0.00000090,0.00000177,0.00008921,-0.00017004,0.00005147,0.0000044
 5,-0.00002954,0.00014374,0.00005003,0.00000766,-0.00024043,0.00001599,
 0.00001269,0.00000399,-0.00000125,0.00000011,-0.00000293,0.00000169,0.
 00000314,-0.00000038,-0.00002759,-0.00003034,-0.00007516,-0.00002147,-
 0.00000621,0.00004757,-0.00002011,-0.00001580,0.00002928,0.00003435,0.
 00004597,-0.00009982,-0.00000766,-0.00000017,0.00000830,0.00000275,0.0
 0000316,-0.00000506,0.00000438,0.00000090,-0.00000322,0.00000921,0.000
 00331,0.00000212,0.00000167,0.00000276,0.00000873,-0.00001331,-0.00000
 845,-0.00000602,-0.00000586,0.00000802,0.00000555,0.00001005,0.0000190
 6,0.00001525,0.03203442,0.07779357,-0.00063713,-0.00020101,0.00051592,
 0.00707096,0.00092604,-0.00805677,0.11025804,0.08628269,-0.25450527,0.
 00221547,0.00503067,-0.00537519,0.00348979,0.00054659,0.00260602,-0.00
 044306,-0.00045557,-0.00036400,0.00000809,-0.00000537,-0.00000102,-0.0
 0001261,0.00000610,-0.00001423,-0.00002138,-0.00002058,0.00000167,0.00
 005041,0.00002587,-0.00003264,-0.00123481,-0.00116562,-0.00061217,-0.0
 0143114,-0.00134553,-0.00064365,0.00008278,0.00033499,-0.00024935,0.00
 000034,0.00000096,-0.00000195,0.00000291,-0.00000256,-0.00000732,-0.00
 000442,0.00003650,0.00004099,0.00113638,0.00453181,0.00218444,0.000007
 16,0.00008150,-0.00000537,0.00011649,-0.00035550,-0.00009851,-0.000125
 14,-0.00000899,0.00016625,-0.00010459,-0.00010344,-0.00001698,-0.00002
 790,0.00012598,0.00003066,0.00021928,0.00022951,0.00003647,0.00023361,
 -0.00003554,-0.00017169,-0.00008596,-0.00021192,-0.00004830,0.00002832
 ,0.00010156,-0.00003039,-0.00011859,0.00000273,0.00006987,0.00001343,-
 0.00001156,-0.00005488,0.00011367,0.00007465,-0.00002118,-0.00000340,-
 0.00003873,0.00001988,0.00002313,-0.00005009,0.00001378,0.00003948,0.0
 0004015,-0.00002757,0.00003917,0.00007053,0.00001553,-0.00017881,-0.00
 022810,0.00002745,-0.00001990,-0.00001691,0.00000461,-0.00000049,-0.00
 001198,-0.00000784,-0.00000294,0.00000299,0.00000618,0.00000526,0.0000
 0459,0.00001005,-0.00004130,-0.00001096,-0.00005672,-0.00004529,0.0000
 7162,0.00006514,0.00000902,-0.00002110,0.00001046,-0.00001562,0.000025
 70,-0.00003459,-0.00000076,-0.00000295,0.00001936,-0.00000030,-0.00000
 211,-0.00000817,0.00000422,-0.00000666,0.00000201,-0.00000348,0.000003
 61,0.00000279,-0.00000245,0.00000626,0.00001136,-0.00000689,0.00000219
 ,0.00000161,0.00000145,-0.00000543,0.00000160,-0.00000423,-0.00000580,
 -0.00000873,-0.00000590,-0.00001154,0.00000803,-0.00001060,-0.00000102
 ,-0.00000401,0.00000583,0.00000704,-0.00000117,0.00000324,-0.00000464,
 0.00000601,-0.00000528,-0.00000783,0.00000278,0.00000352,-0.00000324,0
 .00000365,0.00000191,0.00000399,-0.00000249,-0.00000647,-0.00000358,-0
 .00000617,-0.00001306,0.00003629,-0.00003570,-0.00000142,-0.00001002,0
 .00001696,-0.00001077,-0.00003212,0.00000548,-0.00000232,0.00000034,-0
 .00000067,-0.00001781,0.00001679,-0.00004147,0.00002073,-0.00000693,-0
 .00000291,0.00000003,-0.00000899,0.00000155,-0.00000480,-0.00000746,0.
 00002315,-0.00000806,0.00000498,-0.00000217,0.00000627,-0.00000225,0.0
 0000303,-0.00000136,0.00000641,-0.00000285,0.00000165,-0.00000122,0.00
 000176,-0.00000256,0.00000589,-0.00000142,-0.00000038,-0.00000211,0.00
 000007,0.00000092,-0.00000179,0.00000007,-0.00000009,0.00000529,-0.000
 00115,0.00000600,0.00001062,-0.00000526,-0.00000498,-0.00000186,-0.000
 00012,0.00000196,0.00000614,0.00000081,-0.00000039,-0.00000144,0.00000
 125,0.00000164,0.00000285,-0.00000008,-0.00000100,0.00000169,0.0000037
 1,-0.00000151,0.00000330,-0.00000085,0.00000064,-0.00000150,-0.0000024
 8,-0.00005342,0.00014951,-0.00005805,0.00000116,0.00009172,-0.00008578
 ,-0.00002824,-0.00001942,0.00005896,-0.00000581,-0.00000895,-0.0000014
 9,-0.00000627,-0.00000385,0.00000905,0.00000076,0.00000479,0.00000285,
 -0.00005613,-0.00009722,-0.00002657,0.00002456,0.00001544,0.00000805,0
 .00000774,0.00000735,0.00001493,0.00008980,-0.00002377,0.00007468,-0.0
 0001523,-0.00002248,0.00000710,0.00000655,0.00000561,0.00000156,0.0000
 0071,-0.00000045,-0.00000392,-0.00000084,-0.00000077,0.00000192,-0.000
 00391,-0.00000724,0.00000555,0.00000383,0.00000717,0.00000472,-0.00000
 421,0.00000436,-0.00001685,0.00001471,0.00001800,0.00000734,-0.1205317
 9,-0.09436304,0.26461874,0.00007508,-0.00005149,0.00004067,0.00006451,
 0.00004032,-0.00002626,0.00005341,-0.00003657,-0.00006154,-0.00001136,
 0.00006682,-0.00008618,-0.00020572,0.00002806,0.00004458,-0.00005457,-
 0.00000141,0.00015483,0.00003147,-0.00001939,0.00000126,-0.00001996,0.
 00003094,-0.00002023,-0.00000963,-0.00003202,0.00005157,0.00002685,0.0
 0007620,-0.00008518,0.00001809,-0.00000776,-0.00000173,0.00000214,0.00
 001988,0.00002276,-0.00000142,-0.00000018,-0.00001564,0.00000023,0.000
 00492,0.00000405,0.00000756,-0.00000175,-0.00002235,-0.00002693,-0.000
 02692,0.00000290,-0.00003438,0.00002487,0.00001893,-0.00001407,-0.0000
 1179,-0.00001757,-0.00010899,-0.00002597,-0.00006889,-0.00009360,0.000
 01531,0.00003454,-0.00008550,-0.00004762,-0.00007237,-0.00007045,0.000
 13756,-0.00002900,0.00013806,0.00003605,0.00008900,0.00014306,-0.00002
 772,-0.00001933,0.00016765,-0.00015465,0.00019102,-0.00003811,0.000123
 84,-0.00009117,-0.00009766,0.00002540,0.00001534,0.00002590,-0.0000117
 3,-0.00002371,0.00006190,-0.00000066,-0.00002542,-0.00001444,-0.000064
 00,0.00002150,0.00002462,-0.00007950,0.00002299,0.00003668,0.00002372,
 0.00000857,0.00002447,0.00003899,0.00003808,-0.00009707,-0.00008452,-0
 .00004240,-0.00000356,-0.00000022,0.00000537,0.00000366,-0.00000272,-0
 .00000185,-0.00000851,0.00000142,0.00000196,0.00000504,0.00000095,-0.0
 0000337,-0.00000593,-0.00000451,0.00000539,0.00000391,0.00000249,-0.00
 000563,-0.00000981,-0.00000007,0.00000224,0.00000494,0.00000172,0.0000
 0029,0.00000009,0.00000289,0.00000309,0.00000133,-0.00000446,-0.000004
 44,0.00000142,0.00000045,-0.00000297,-0.00000440,0.00000233,0.00000551
 ,-0.00000238,0.00000268,-0.00000079,-0.00000336,0.00000014,0.00000406,
 -0.00000113,0.00000166,-0.00000377,0.00000138,-0.00000197,-0.00000025,
 -0.00000578,-0.00000434,0.00000045,-0.00000793,-0.00000266,-0.00000005
 ,0.00000527,0.00000032,-0.00000116,0.00000217,0.00000211,-0.00000024,-
 0.00000469,-0.00000026,-0.00000150,0.00000062,0.00000292,-0.00000224,0
 .00000267,0.00000027,0.00000128,-0.00000437,-0.00000447,-0.00000185,-0
 .00000316,-0.00000493,-0.00000437,-0.00000633,-0.00000416,-0.00000374,
 0.00000210,0.00000155,0.00000327,0.00000251,0.00000091,0.00000084,-0.0
 0000034,-0.00000767,-0.00000394,0.00000257,0.00000579,0.00000193,-0.00
 000556,-0.00000610,-0.00000668,0.00000037,0.00000421,0.00000574,-0.000
 00708,0.00001121,-0.00000353,0.00000502,-0.00000208,0.00000324,-0.0000
 0567,0.00000821,-0.00000530,0.00000277,-0.00000406,-0.00000012,0.00000
 218,0.00000804,0.00000011,-0.00000267,-0.00000756,0.00000102,0.0000022
 9,-0.00000425,-0.00000312,-0.00000305,0.00000819,-0.00000177,0.0000199
 8,0.00000488,-0.00000345,-0.00001483,-0.00000632,0.00000331,-0.0000036
 3,0.00001348,-0.00000487,0.00000063,-0.00000663,-0.00000042,-0.0000005
 5,0.00000447,-0.00000221,-0.00000146,-0.00000147,0.00000321,-0.0000003
 0,0.00000773,-0.00000287,-0.00000172,-0.00000241,-0.00000074,0.0000010
 5,0.00001470,-0.00001386,0.00049435,-0.00026925,0.00037299,-0.00036053
 ,0.00133799,-0.00124460,-0.00688767,0.00031676,0.00239063,0.00003610,-
 0.00020757,-0.00031721,0.00038264,0.00028882,-0.00004981,0.00027826,0.
 00010398,-0.00012540,0.00004923,-0.00002579,-0.00001014,-0.00009783,0.
 00004647,-0.00002816,-0.00086582,0.00055294,-0.00041494,-0.00022476,-0
 .00008885,0.00015704,0.00004921,0.00003427,-0.00000684,0.00002514,-0.0
 0001437,-0.00001078,0.00002979,0.00002117,-0.00002071,-0.29168641,0.06
 278842,0.03799641,-0.00125336,-0.00042541,-0.00043784,-0.01462720,0.00
 584586,0.00280523,0.00000129,0.00000258,-0.00000285,0.00000857,0.00000
 722,0.00000417,0.31477542,0.00006452,-0.00017876,0.00005714,0.00000121
 ,0.00005759,-0.00006500,0.00010553,-0.00006958,-0.00004117,-0.00005955
 ,0.00003810,-0.00003675,-0.00017400,0.00004887,-0.00003556,-0.00002836
 ,-0.00003543,0.00000537,-0.00000107,0.00000115,-0.00000741,0.00000980,
 -0.00000258,-0.00000649,0.00000145,0.00001082,-0.00001911,0.00000481,0
 .00001938,0.00000527,0.00000037,-0.00000902,-0.00000387,0.00000994,0.0
 0004036,0.00001392,0.00000113,0.00001410,0.00001308,0.00000084,-0.0000
 0048,-0.00000345,-0.00000034,0.00000530,0.00000069,-0.00000893,-0.0000
 0330,-0.00000278,-0.00006254,-0.00001589,0.00008869,0.00004359,0.00000
 601,-0.00001430,0.00005963,0.00003041,0.00006647,0.00003425,0.00001102
 ,-0.00002676,0.00003213,0.00001855,0.00002111,0.00005649,-0.00008219,0
 .00003347,-0.00004826,-0.00000983,-0.00002080,-0.00006586,-0.00000197,
 0.00002645,-0.00012536,0.00004360,-0.00016923,0.00002336,-0.00005433,0
 .00004949,0.00003712,-0.00000768,-0.00001191,-0.00000969,0.00000210,0.
 00001209,-0.00002173,-0.00000086,0.00000925,0.00001428,0.00004035,-0.0
 0000952,-0.00000918,0.00003955,-0.00001194,-0.00001204,-0.00000872,-0.
 00000267,-0.00000306,-0.00000790,-0.00000970,0.00003803,0.00003966,0.0
 0000341,0.00000182,-0.00000088,-0.00000112,-0.00000140,0.00000161,0.00
 000124,0.00000265,-0.00000016,-0.00000090,-0.00000171,0.00000007,-0.00
 000018,0.00000410,-0.00000049,0.00000045,-0.00000125,0.00000016,-0.000
 00163,0.00000241,0.00000185,-0.00000087,-0.00000061,-0.00000099,0.0000
 0103,-0.00000105,-0.00000108,-0.00000268,-0.00000105,0.00000165,0.0000
 0305,-0.00000096,0.00000044,0.00000057,0.00000236,-0.00000081,-0.00000
 213,0.00000075,-0.00000019,-0.00000054,0.00000156,-0.00000024,-0.00000
 146,-0.00000005,-0.00000017,0.00000093,-0.00000004,0.00000082,0.000000
 64,0.00000240,0.00000195,-0.00000048,0.00000294,0.00000086,0.00000011,
 -0.00000182,-0.00000040,0.00000034,-0.00000091,-0.00000048,-0.00000013
 ,0.00000136,0.00000099,-0.00000010,-0.00000039,-0.00000089,0.00000036,
 -0.00000066,-0.00000030,-0.00000024,0.00000149,0.00000157,0.00000083,0
 .00000102,0.00000113,0.00000233,0.00000191,0.00000154,0.00000047,-0.00
 000032,0.00000075,-0.00000113,-0.00000044,-0.00000065,-0.00000006,0.00
 000071,-0.00000015,0.00000278,-0.00000049,0.00000071,-0.00000099,0.000
 00024,0.00000230,0.00000098,0.00000083,-0.00000073,-0.00000078,0.00000
 184,-0.00000692,0.00000213,-0.00000224,0.00000033,-0.00000182,0.000003
 27,-0.00000350,0.00000287,-0.00000112,0.00000180,0.00000028,-0.0000009
 6,-0.00000363,0.00000154,0.00000143,0.00000409,-0.00000157,-0.00000101
 ,0.00000193,0.00000197,0.00000147,-0.00000384,0.00000094,-0.00001304,-
 0.00000269,0.00000076,0.00000899,0.00000484,-0.00000194,0.00000334,-0.
 00000792,0.00000329,-0.00000036,0.00000387,0.00000031,-0.00000121,-0.0
 0000392,0.00000197,0.00000074,0.00000063,-0.00000168,0.00000102,-0.000
 00452,0.00000139,0.00000055,0.00000095,0.00000045,-0.00000389,0.000000
 76,-0.00000168,-0.00097274,-0.00255809,0.00428493,-0.00031442,0.000954
 53,-0.00020059,0.02217337,-0.00606903,-0.00463597,-0.00056252,0.000807
 01,-0.00018734,-0.00031123,0.00040584,-0.00087363,-0.00025490,-0.00022
 083,0.00023637,-0.00000910,0.00000676,-0.00000066,0.00013651,-0.000035
 13,0.00003575,0.00196747,-0.00039498,-0.00014862,0.00018341,0.00018219
 ,-0.00026098,-0.00002941,-0.00005266,-0.00000963,-0.00002610,0.0000567
 6,0.00000737,-0.00003408,-0.00002588,0.00002295,0.06225173,-0.06453845
 ,-0.01085902,0.01120692,-0.00376461,-0.00041135,-0.02497943,0.00880943
 ,0.00472900,0.00000108,-0.00000186,0.00000265,0.00000557,0.00000240,-0
 .00000061,-0.07035491,0.06646613,0.00003503,0.00002927,-0.00000115,0.0
 0000384,-0.00000160,-0.00000694,-0.00000614,0.00000806,0.00000174,0.00
 002603,-0.00001072,-0.00001237,-0.00003557,0.00000975,0.00002851,-0.00
 001470,0.00000839,0.00005453,0.00000986,-0.00000323,-0.00000685,-0.000
 00575,0.00001299,-0.00000871,0.00001168,-0.00001106,0.00001088,0.00001
 305,0.00003852,-0.00001772,-0.00000562,0.00000452,-0.00000187,-0.00000
 022,-0.00001123,0.00000162,-0.00000271,-0.00002389,-0.00001493,0.00000
 003,0.00000194,0.00000206,0.00000031,-0.00000226,-0.00001301,-0.000013
 66,-0.00003134,-0.00000929,-0.00001789,0.00003192,-0.00001435,-0.00001
 890,-0.00001193,0.00001210,-0.00002012,-0.00002371,-0.00003167,-0.0000
 0108,-0.00000710,0.00001749,-0.00000332,-0.00000392,-0.00000335,-0.000
 03037,0.00003303,-0.00002381,0.00000588,-0.00000569,0.00000458,0.00001
 413,0.00000747,-0.00002181,0.00005317,0.00000010,0.00010823,0.00000002
 ,0.00000504,-0.00001929,-0.00000138,-0.00000227,0.00000701,-0.00000046
 ,0.00000296,-0.00000371,0.00000096,-0.00000072,-0.00000375,-0.00000927
 ,-0.00001647,0.00000302,0.00000052,-0.00000377,0.00000194,-0.00000074,
 0.00000055,-0.00000035,-0.00000283,0.00000226,0.00000202,-0.00001046,-
 0.00001230,0.00000102,-0.00000101,0.00000178,-0.00000199,-0.00000089,0
 .00000101,-0.00000100,0.00000156,-0.00000014,0.00000103,-0.00000114,-0
 .00000238,0.00000219,-0.00000235,0.00000185,-0.00000099,0.00000018,-0.
 00000161,0.00000172,0.00000060,-0.00000100,0.00000007,0.00000014,0.000
 00039,-0.00000009,0.00000063,-0.00000034,0.00000161,0.00000063,0.00000
 032,-0.00000197,0.00000075,-0.00000049,0.00000099,-0.00000095,0.000000
 17,-0.00000001,0.00000014,-0.00000059,0.00000082,-0.00000048,0.0000001
 8,-0.00000021,0.00000046,-0.00000037,0.00000065,-0.00000038,-0.0000001
 6,-0.00000039,-0.00000043,-0.00000098,-0.00000009,-0.00000017,0.000000
 21,-0.00000007,0.00000019,0.00000014,-0.00000021,0.00000007,-0.0000002
 0,0.00000036,-0.00000085,0.00000007,0.00000048,-0.00000004,-0.00000023
 ,0.00000014,0.00000029,-0.00000031,-0.00000032,0.00000006,0.00000003,-
 0.00000044,0.00000011,-0.00000081,-0.00000164,-0.00000043,-0.00000017,
 0.00000066,-0.00000023,-0.00000063,0.00000030,0.00000018,0.00000001,-0
 .00000049,-0.00000062,-0.00000060,-0.00000075,-0.00000051,-0.00000101,
 0.00000092,0.00000055,-0.00000039,0.00000019,-0.00000035,0.00000084,-0
 .00000099,-0.00000066,0.00000206,0.00000062,0.00000016,0.00000030,0.00
 000074,-0.00000059,-0.00000001,-0.00000091,0.00000048,0.00000014,-0.00
 000123,-0.00000029,0.00000012,0.00000025,-0.00000050,-0.00000030,0.000
 00051,0.00000030,0.00000024,-0.00000139,0.00000035,0.00000018,-0.00000
 032,0.00000581,0.00000138,-0.00000144,-0.00000266,-0.00000145,0.000000
 17,-0.00000125,0.00000182,-0.00000025,-0.00000072,-0.00000063,-0.00000
 022,0.00000188,0.00000258,-0.00000212,0.00000003,0.00000008,0.00000031
 ,-0.00000108,0.00000151,0.00000015,-0.00000013,-0.00000016,-0.00000022
 ,0.00000034,0.00000049,0.00000343,0.00113015,0.00393898,-0.00478809,0.
 00083071,-0.00102314,0.00148173,-0.02392309,0.00577443,0.00313740,0.00
 016316,-0.00099577,0.00071398,0.00067121,-0.00059560,0.00077370,0.0001
 0501,0.00022102,-0.00022983,-0.00000897,0.00000207,-0.00000273,-0.0001
 0580,0.00003547,-0.00002259,-0.00180735,0.00030196,0.00053047,-0.00011
 334,-0.00015578,0.00022408,0.00001226,0.00000981,0.00000653,0.00002075
 ,-0.00004294,-0.00003536,0.00001984,0.00000555,-0.00002747,0.03837436,
 -0.01103670,-0.05406028,0.02873470,-0.00559460,-0.00185529,-0.00299477
 ,0.00079697,-0.00112008,-0.00000004,-0.00000157,0.00000026,-0.00000726
 ,-0.00000864,0.00000031,-0.04107203,0.00835194,0.05523292\\0.00000594,
 -0.00000170,-0.00000271,0.00000293,0.00000391,-0.00000718,0.00000703,-
 0.00001150,-0.00000574,0.00001197,-0.00000424,-0.00001427,0.00000679,0
 .00000610,-0.00002021,0.00000257,0.00001051,-0.00001752,0.00000156,0.0
 0001088,-0.00000945,-0.00000748,0.00001363,-0.00000149,0.00000059,0.00
 001650,-0.00001906,0.00000064,0.00000717,-0.00000769,0.00000677,-0.000
 00662,-0.00000382,0.00000409,0.00000052,-0.00000816,0.00000173,0.00000
 251,-0.00000689,-0.00000483,0.00000731,-0.00000146,-0.00000330,0.00000
 923,-0.00000478,0.00000133,0.00000564,-0.00000780,0.00000541,-0.000002
 42,-0.00001173,-0.00000613,0.00000615,0.00000213,-0.00000292,0.0000010
 1,0.00000240,0.00000741,-0.00001097,0.00000534,-0.00000496,0.00000534,
 -0.00000476,-0.00000320,0.00000192,0.00001056,-0.00000090,-0.00000289,
 0.00000233,0.00000312,-0.00000529,-0.00000031,-0.00000138,0.00000285,0
 .00000149,-0.00001112,0.00000473,0.00000948,0.00000097,-0.00000762,0.0
 0000801,-0.00000397,-0.00000530,0.00001365,-0.00000036,-0.00001604,0.0
 0000544,-0.00001117,-0.00000011,0.00000921,-0.00000461,0.00000806,0.00
 001197,0.00000149,-0.00000002,0.00000668,0.00000330,-0.00000121,-0.000
 00898,0.00000557,0.00000182,-0.00000452,0.00001203,-0.00001723,0.00000
 786,0.00000038,-0.00000755,0.00000448,-0.00000004,-0.00000755,0.000004
 64,0.00000200,-0.00000606,0.00000094,0.00000740,-0.00001092,-0.0000008
 5,0.00000281,-0.00000606,-0.00000006,0.00000500,-0.00000744,0.00000148
 ,0.00000191,-0.00000464,0.00000267,0.00000351,-0.00001175,0.00001621,-
 0.00000359,-0.00000548,0.00000475,-0.00000213,-0.00000331,0.00000495,-
 0.00000046,-0.00000652,0.00000600,0.00000231,-0.00001754,0.00000206,-0
 .00000090,-0.00000533,0.00000912,0.00000051,-0.00000555,0.00000795,0.0
 0000114,-0.00000039,0.00000478,-0.00000378,0.00000385,0.00000128,-0.00
 000005,-0.00000155,0.00000143,0.00000052,-0.00000239,0.00000200,-0.000
 00171,-0.00000038,0.00000335,-0.00000340,0.00001027,-0.00000427,-0.000
 00175,0.00000378,-0.00000059,0.00000211,0.00000193,-0.00000292,-0.0000
 0268,-0.00000027,-0.00000070,0.00000772,-0.00000249,-0.00000119,0.0000
 0028,-0.00000259,-0.00000367,0.00000293,-0.00000326,-0.00000247,0.0000
 0161,-0.00000318,-0.00000099,0.00000253,0.00000772,-0.00001196,0.00000
 422,-0.00000177,-0.00000272,0.00000164,0.00000039,-0.00000515,-0.00000
 097,0.00000119,-0.00000265,-0.00000803,0.00001334,0.00000723,-0.000008
 29,-0.00000085,0.00000588,-0.00000459,0.00000051,0.00000773,-0.0000055
 3,0.00000435,0.00000423,-0.00001671,0.00001410,0.00001371,-0.00000367,
 0.00000260,0.00000423,-0.00000399,0.00000350,0.00000127,-0.00000499,0.
 00000091,0.00000636,-0.00001301,0.00000189,0.00001663,0.00000175,-0.00
 000140,0.00000379,-0.00000365,-0.00000064,0.00000628,-0.00000038,-0.00
 000156,0.00000214,-0.00000128,-0.00000121,0.00002202,-0.00000439,-0.00
 000051,0.00000916,-0.00000510,0.00000177,0.00000784,-0.00000835,-0.000
 00301,0.00000331,-0.00000059,0.00000166,0.00000098,0.00000473,0.000005
 00,-0.00000759,0.00000638,-0.00000554,-0.00000808,0.00000710,-0.000000
 67,-0.00001470,0.00000046,0.00000499,-0.00000172,-0.00000026,0.0000017
 8,-0.00000428,-0.00000365,-0.00000515,0.00000301,0.00000221,0.00000018
 ,-0.00000278,-0.00000072,0.00000301,0.00000252,0.00000218,0.00000025,-
 0.00000336,-0.00000429,0.00000599,-0.00000499,0.00000006,0.00000375,0.
 00000048,-0.00000108,0.00000344,-0.00000222,-0.00000042,0.00000098,0.0
 0000167,0.00000210,0.00000029,-0.00000754,0.00000419,-0.00000191,-0.00
 000924,0.00000461,0.00000206,-0.00000722,-0.00000174,0.00001020,-0.000
 00684,0.00000678,-0.00000305,-0.00000757,0.00000618,0.00000118,-0.0000
 0821\\\@
 The archive entry for this job was punched.


 DO NOT LET SELFISH MEN OR GREEDY INTERESTS SKIN YOUR COUNTRY OF ITS
 BEAUTY, ITS RICHES, OR ITS ROMANCE. -- THEODORE ROOSEVELT
 Job cpu time:       1 days 15 hours 19 minutes 14.9 seconds.
 Elapsed time:       0 days  2 hours 30 minutes 18.8 seconds.
 File lengths (MBytes):  RWF=   6947 Int=      0 D2E=      0 Chk=     43 Scr=      1
 Normal termination of Gaussian 16 at Sun Dec  8 00:17:55 2024.
