/mnt/lustre/scratch/nvme/SLURM/9663790/usccqdma.XRKbYPrbdI
OMP_STACKSIZE=0m
GAUSS_PDEF=16
GAUSS_MDEF=65536MB
GAUSS_RDEF=SCF=Direct
 Entering Gaussian System, Link 0=g16.exe
 Initial command:
 /opt/cesga/2020/software/Core/g16/c1/l1.exe "/mnt/lustre/scratch/nvme/SLURM/9663790/usccqdma.XRKbYPrbdI/Gau-3155462.inp" -scrdir="/mnt/lustre/scratch/nvme/SLURM/9663790/usccqdma.XRKbYPrbdI/"
 Default is to use a total of  16 processors:
                               16 via shared-memory
                                1 via Linda
 Entering Link 1 = /opt/cesga/2020/software/Core/g16/c1/l1.exe PID=   3155488.
  
 Copyright (c) 1988-2019, Gaussian, Inc.  All Rights Reserved.
  
 This is part of the Gaussian(R) 16 program.  It is based on
 the Gaussian(R) 09 system (copyright 2009, Gaussian, Inc.),
 the Gaussian(R) 03 system (copyright 2003, Gaussian, Inc.),
 the Gaussian(R) 98 system (copyright 1998, Gaussian, Inc.),
 the Gaussian(R) 94 system (copyright 1995, Gaussian, Inc.),
 the Gaussian 92(TM) system (copyright 1992, Gaussian, Inc.),
 the Gaussian 90(TM) system (copyright 1990, Gaussian, Inc.),
 the Gaussian 88(TM) system (copyright 1988, Gaussian, Inc.),
 the Gaussian 86(TM) system (copyright 1986, Carnegie Mellon
 University), and the Gaussian 82(TM) system (copyright 1983,
 Carnegie Mellon University). Gaussian is a federally registered
 trademark of Gaussian, Inc.
  
 This software contains proprietary and confidential information,
 including trade secrets, belonging to Gaussian, Inc.
  
 This software is provided under written license and may be
 used, copied, transmitted, or stored only in accord with that
 written license.
  
 The following legend is applicable only to US Government
 contracts under FAR:
  
                    RESTRICTED RIGHTS LEGEND
  
 Use, reproduction and disclosure by the US Government is
 subject to restrictions as set forth in subparagraphs (a)
 and (c) of the Commercial Computer Software - Restricted
 Rights clause in FAR 52.227-19.
  
 Gaussian, Inc.
 340 Quinnipiac St., Bldg. 40, Wallingford CT 06492
  
  
 ---------------------------------------------------------------
 Warning -- This program may not be used in any manner that
 competes with the business of Gaussian, Inc. or will provide
 assistance to any competitor of Gaussian, Inc.  The licensee
 of this program is prohibited from giving any competitor of
 Gaussian, Inc. access to this program.  By using this program,
 the user acknowledges that Gaussian, Inc. is engaged in the
 business of creating and licensing software in the field of
 computational chemistry and represents and warrants to the
 licensee that it is not a competitor of Gaussian, Inc. and that
 it will not use this program in any manner prohibited above.
 ---------------------------------------------------------------
  

 Cite this work as:
 Gaussian 16, Revision C.01,
 M. J. Frisch, G. W. Trucks, H. B. Schlegel, G. E. Scuseria, 
 M. A. Robb, J. R. Cheeseman, G. Scalmani, V. Barone, 
 G. A. Petersson, H. Nakatsuji, X. Li, M. Caricato, A. V. Marenich, 
 J. Bloino, B. G. Janesko, R. Gomperts, B. Mennucci, H. P. Hratchian, 
 J. V. Ortiz, A. F. Izmaylov, J. L. Sonnenberg, D. Williams-Young, 
 F. Ding, F. Lipparini, F. Egidi, J. Goings, B. Peng, A. Petrone, 
 T. Henderson, D. Ranasinghe, V. G. Zakrzewski, J. Gao, N. Rega, 
 G. Zheng, W. Liang, M. Hada, M. Ehara, K. Toyota, R. Fukuda, 
 J. Hasegawa, M. Ishida, T. Nakajima, Y. Honda, O. Kitao, H. Nakai, 
 T. Vreven, K. Throssell, J. A. Montgomery, Jr., J. E. Peralta, 
 F. Ogliaro, M. J. Bearpark, J. J. Heyd, E. N. Brothers, K. N. Kudin, 
 V. N. Staroverov, T. A. Keith, R. Kobayashi, J. Normand, 
 K. Raghavachari, A. P. Rendell, J. C. Burant, S. S. Iyengar, 
 J. Tomasi, M. Cossi, J. M. Millam, M. Klene, C. Adamo, R. Cammi, 
 J. W. Ochterski, R. L. Martin, K. Morokuma, O. Farkas, 
 J. B. Foresman, and D. J. Fox, Gaussian, Inc., Wallingford CT, 2019.
 
 ******************************************
 Gaussian 16:  ES64L-G16RevC.01  3-Jul-2019
                 7-Dec-2024 
 ******************************************
 Default route: SCF=Direct
 -
 #
 -
 1/38=1,172=1/1;
 2/12=2,17=6,18=5,40=1/2;
 3/11=9,25=1,30=1/1,2,3;
 4//1;
 5/5=2,38=5/2;
 6/7=2,8=2,9=2,10=2,28=1/1;
 99/5=1,9=1/99;
 ----------------------------------------------------------------------
 /Users/danielmarcosatanes/Desktop/Tesis/sp3/Estructuras_supporting_gjf
 /44f/N-CH3/5-CF3-Bipy/OA/OA-TS-Ir(R-H)(Bpin)3/L27-OA-TS-Ir(R-H)(Bpin)3
 .log
 ----------------------------------------------------------------------
 Symbolic Z-matrix:
 Charge =  0 Multiplicity = 1
 C                     1.90296  -2.25753   0.80824 
 C                     2.62954  -0.06063   0.77778 
 C                     3.86661  -0.41739   1.29147 
 C                     4.12913  -1.75989   1.5457 
 C                     3.13519  -2.68716   1.3073 
 C                     0.78258  -3.18662   0.57149 
 C                    -1.4182   -3.43992  -0.12476 
 C                    -1.4094   -4.79506   0.16659 
 C                    -0.24631  -5.35808   0.67816 
 C                     0.85447  -4.5446    0.88906 
 H                     2.36268   0.97584   0.57298 
 H                     5.09856  -2.06534   1.93606 
 H                     3.32385  -3.73848   1.50216 
 H                    -2.30907  -2.93302  -0.49505 
 H                    -0.19797  -6.41787   0.91998 
 H                     1.76392  -4.96745   1.30591 
 N                     1.67367  -0.96065   0.53676 
 N                    -0.347    -2.65636   0.05693 
 Ir                   -0.35046  -0.48394  -0.44023 
 O                    -2.61978   0.40756  -2.28269 
 O                     0.51822   2.15477   0.76057 
 O                    -2.25807   0.84256   1.66681 
 B                    -0.31632   1.55712  -0.19104 
 B                    -2.23137  -0.31293  -1.16248 
 B                    -1.31295  -0.13642   1.37739 
 O                    -1.05476  -0.90468   2.50661 
 O                    -3.33745  -0.99161  -0.62877 
 C                    -4.44078  -0.81168  -1.53078 
 C                    -4.04754   0.50552  -2.25057 
 C                    -2.79919   0.55998   2.96614 
 C                    -1.63657  -0.22332   3.6306 
 C                     0.56856   3.56328   0.48431 
 C                    -0.77066   3.79712  -0.27269 
 O                    -0.98367   2.53148  -0.91104 
 C                    -4.57242   0.64562  -3.66441 
 H                    -4.19995  -0.15393  -4.31476 
 H                    -5.67194   0.62881  -3.67925 
 H                    -4.24256   1.60339  -4.08642 
 C                    -4.38673   1.74818  -1.43384 
 H                    -5.46531   1.95879  -1.43084 
 H                    -4.03352   1.64705  -0.39654 
 H                    -3.86093   2.60361  -1.87826 
 C                    -4.46229  -2.01435  -2.46644 
 H                    -4.55363  -2.93083  -1.86736 
 H                    -5.31081  -1.98139  -3.163 
 H                    -3.53273  -2.07632  -3.04907 
 C                    -5.73056  -0.75018  -0.73876 
 H                    -5.90769  -1.71124  -0.2375 
 H                    -5.69494   0.02808   0.03125 
 H                    -6.58562  -0.54918  -1.40048 
 C                     0.71241   4.31189   1.79353 
 H                    -0.08364   4.04401   2.4983 
 H                     1.67495   4.06079   2.2585 
 H                     0.6855    5.39907   1.63126 
 C                     1.79346   3.80226  -0.38923 
 H                     2.68835   3.43989   0.13436 
 H                     1.70889   3.25132  -1.3376 
 H                     1.94071   4.86636  -0.6171 
 C                    -1.94725   4.04211   0.66194 
 H                    -1.88544   5.02488   1.14919 
 H                    -2.87486   4.005     0.07586 
 H                    -2.00824   3.25588   1.42411 
 C                    -0.72504   4.87481  -1.33804 
 H                     0.00808   4.64426  -2.1195 
 H                    -1.70937   4.95547  -1.8173 
 H                    -0.479     5.85295  -0.89974 
 C                    -0.55536   0.69136   4.19387 
 H                     0.32208   0.08245   4.44671 
 H                    -0.24265   1.43394   3.44529 
 H                    -0.88556   1.21339   5.10241 
 C                    -2.06104  -1.24151   4.66783 
 H                    -1.17608  -1.74374   5.07951 
 H                    -2.59196  -0.75557   5.49934 
 H                    -2.71375  -2.00788   4.23533 
 C                    -4.04753  -0.28572   2.75167 
 H                    -4.7398    0.27359   2.10836 
 H                    -3.80552  -1.22398   2.23503 
 H                    -4.56031  -0.51177   3.69652 
 C                    -3.16731   1.86244   3.6472 
 H                    -3.5302    1.68163   4.66942 
 H                    -2.31617   2.55216   3.69729 
 H                    -3.96975   2.35851   3.0843 
 H                    -0.12304   0.29316  -1.84409 
 C                     3.02649  -0.73211  -2.59183 
 O                     3.18914  -1.73355  -1.89974 
 C                     4.22401   0.10704  -3.03311 
 H                     4.09678   0.39856  -4.08734 
 C                     4.32714   1.37017  -2.17694 
 C                     0.61904  -1.04951  -2.49533 
 N                     1.7755   -0.32417  -2.97344 
 C                     1.46069   0.87861  -3.71001 
 C                     5.50288  -0.70643  -2.90965 
 C                     4.93523   0.58963   1.56747 
 F                     5.39425   0.47702   2.81962 
 F                     5.98849   0.40533   0.75615 
 F                     4.51389   1.84522   1.3996 
 H                     5.67115  -0.9904   -1.86333 
 H                     6.36218  -0.11472  -3.25204 
 H                     5.45654  -1.62998  -3.49808 
 H                     5.15018   2.00824  -2.52497 
 H                     4.5451    1.09599  -1.13672 
 H                     3.40761   1.96998  -2.17743 
 H                     0.94509  -2.05316  -2.21109 
 H                    -0.12167  -1.11671  -3.30273 
 H                     0.78452   0.63705  -4.54254 
 H                     2.35178   1.35578  -4.12102 
 H                     0.93541   1.6063   -3.06467 
 H                    -2.303    -5.39034  -0.00292 
 
 Stoichiometry    C35H56B3F3IrN3O7
 Framework group  C1[X(C35H56B3F3IrN3O7)]
 Deg. of freedom   318
 Full point group                 C1      NOp   1
 Largest Abelian subgroup         C1      NOp   1
 Largest concise Abelian subgroup C1      NOp   1
                         Standard orientation:                         
 ---------------------------------------------------------------------
 Center     Atomic      Atomic             Coordinates (Angstroms)
 Number     Number       Type             X           Y           Z
 ---------------------------------------------------------------------
      1          6           0        1.902960   -2.257531    0.808240
      2          6           0        2.629540   -0.060631    0.777780
      3          6           0        3.866610   -0.417391    1.291470
      4          6           0        4.129130   -1.759891    1.545700
      5          6           0        3.135190   -2.687161    1.307300
      6          6           0        0.782580   -3.186621    0.571490
      7          6           0       -1.418200   -3.439921   -0.124760
      8          6           0       -1.409400   -4.795061    0.166590
      9          6           0       -0.246310   -5.358081    0.678160
     10          6           0        0.854470   -4.544601    0.889060
     11          1           0        2.362681    0.975839    0.572980
     12          1           0        5.098560   -2.065341    1.936060
     13          1           0        3.323850   -3.738481    1.502160
     14          1           0       -2.309070   -2.933021   -0.495050
     15          1           0       -0.197970   -6.417871    0.919980
     16          1           0        1.763920   -4.967451    1.305910
     17          7           0        1.673670   -0.960651    0.536760
     18          7           0       -0.347000   -2.656361    0.056930
     19         77           0       -0.350460   -0.483941   -0.440230
     20          8           0       -2.619779    0.407559   -2.282690
     21          8           0        0.518221    2.154769    0.760570
     22          8           0       -2.258069    0.842559    1.666810
     23          5           0       -0.316319    1.557119   -0.191040
     24          5           0       -2.231370   -0.312931   -1.162480
     25          5           0       -1.312950   -0.136421    1.377390
     26          8           0       -1.054760   -0.904681    2.506610
     27          8           0       -3.337450   -0.991611   -0.628770
     28          6           0       -4.440780   -0.811681   -1.530780
     29          6           0       -4.047539    0.505519   -2.250570
     30          6           0       -2.799189    0.559979    2.966140
     31          6           0       -1.636570   -0.223321    3.630600
     32          6           0        0.568561    3.563279    0.484310
     33          6           0       -0.770659    3.797119   -0.272690
     34          8           0       -0.983669    2.531479   -0.911040
     35          6           0       -4.572419    0.645619   -3.664410
     36          1           0       -4.199950   -0.153931   -4.314760
     37          1           0       -5.671939    0.628809   -3.679250
     38          1           0       -4.242559    1.603389   -4.086420
     39          6           0       -4.386729    1.748179   -1.433840
     40          1           0       -5.465309    1.958789   -1.430840
     41          1           0       -4.033519    1.647049   -0.396540
     42          1           0       -3.860929    2.603609   -1.878260
     43          6           0       -4.462290   -2.014351   -2.466440
     44          1           0       -4.553630   -2.930831   -1.867360
     45          1           0       -5.310810   -1.981391   -3.163000
     46          1           0       -3.532730   -2.076321   -3.049070
     47          6           0       -5.730560   -0.750181   -0.738760
     48          1           0       -5.907690   -1.711241   -0.237500
     49          1           0       -5.694940    0.028079    0.031250
     50          1           0       -6.585620   -0.549181   -1.400480
     51          6           0        0.712411    4.311889    1.793530
     52          1           0       -0.083639    4.044009    2.498300
     53          1           0        1.674951    4.060789    2.258500
     54          1           0        0.685501    5.399069    1.631260
     55          6           0        1.793461    3.802259   -0.389230
     56          1           0        2.688351    3.439889    0.134360
     57          1           0        1.708891    3.251319   -1.337600
     58          1           0        1.940711    4.866359   -0.617100
     59          6           0       -1.947249    4.042109    0.661940
     60          1           0       -1.885439    5.024879    1.149190
     61          1           0       -2.874859    4.004999    0.075860
     62          1           0       -2.008239    3.255879    1.424110
     63          6           0       -0.725039    4.874809   -1.338040
     64          1           0        0.008081    4.644259   -2.119500
     65          1           0       -1.709369    4.955469   -1.817300
     66          1           0       -0.478999    5.852949   -0.899740
     67          6           0       -0.555359    0.691359    4.193870
     68          1           0        0.322081    0.082449    4.446710
     69          1           0       -0.242649    1.433939    3.445290
     70          1           0       -0.885559    1.213389    5.102410
     71          6           0       -2.061040   -1.241511    4.667830
     72          1           0       -1.176080   -1.743741    5.079510
     73          1           0       -2.591960   -0.755571    5.499340
     74          1           0       -2.713750   -2.007881    4.235330
     75          6           0       -4.047530   -0.285721    2.751670
     76          1           0       -4.739799    0.273589    2.108360
     77          1           0       -3.805520   -1.223981    2.235030
     78          1           0       -4.560310   -0.511771    3.696520
     79          6           0       -3.167309    1.862439    3.647200
     80          1           0       -3.530199    1.681629    4.669420
     81          1           0       -2.316169    2.552159    3.697290
     82          1           0       -3.969749    2.358509    3.084300
     83          1           0       -0.123039    0.293159   -1.844090
     84          6           0        3.026490   -0.732111   -2.591830
     85          8           0        3.189140   -1.733551   -1.899740
     86          6           0        4.224011    0.107039   -3.033110
     87          1           0        4.096781    0.398559   -4.087340
     88          6           0        4.327141    1.370169   -2.176940
     89          6           0        0.619040   -1.049511   -2.495330
     90          7           0        1.775500   -0.324171   -2.973440
     91          6           0        1.460691    0.878609   -3.710010
     92          6           0        5.502880   -0.706431   -2.909650
     93          6           0        4.935231    0.589629    1.567470
     94          9           0        5.394251    0.477019    2.819620
     95          9           0        5.988491    0.405329    0.756150
     96          9           0        4.513891    1.845219    1.399600
     97          1           0        5.671150   -0.990401   -1.863330
     98          1           0        6.362180   -0.114721   -3.252040
     99          1           0        5.456540   -1.629981   -3.498080
    100          1           0        5.150181    2.008239   -2.524970
    101          1           0        4.545101    1.095989   -1.136720
    102          1           0        3.407611    1.969979   -2.177430
    103          1           0        0.945090   -2.053161   -2.211090
    104          1           0       -0.121670   -1.116711   -3.302730
    105          1           0        0.784521    0.637049   -4.542540
    106          1           0        2.351781    1.355779   -4.121020
    107          1           0        0.935411    1.606299   -3.064670
    108          1           0       -2.303000   -5.390341   -0.002920
 ---------------------------------------------------------------------
 Rotational constants (GHZ):           0.0718983           0.0484209           0.0463991
 Standard basis: STO-3G (5D, 7F)
 IA out of range in STO.
 Error termination via Lnk1e in /opt/cesga/2020/software/Core/g16/c1/l301.exe at Sat Dec  7 22:04:57 2024.
 Job cpu time:       0 days  0 hours  0 minutes  0.8 seconds.
 Elapsed time:       0 days  0 hours  0 minutes  0.1 seconds.
 File lengths (MBytes):  RWF=      6 Int=      0 D2E=      0 Chk=      1 Scr=      1
