/mnt/lustre/scratch/nvme/SLURM/9663735/usccqdma.zVXKkYQix0
OMP_STACKSIZE=0m
GAUSS_PDEF=16
GAUSS_MDEF=65536MB
GAUSS_RDEF=SCF=Direct
 Entering Gaussian System, Link 0=g16.exe
 Initial command:
 /opt/cesga/2020/software/Core/g16/c1/l1.exe "/mnt/lustre/scratch/nvme/SLURM/9663735/usccqdma.zVXKkYQix0/Gau-1295097.inp" -scrdir="/mnt/lustre/scratch/nvme/SLURM/9663735/usccqdma.zVXKkYQix0/"
 Default is to use a total of  16 processors:
                               16 via shared-memory
                                1 via Linda
 Entering Link 1 = /opt/cesga/2020/software/Core/g16/c1/l1.exe PID=   1295123.
  
 Copyright (c) 1988-2019, Gaussian, Inc.  All Rights Reserved.
  
 This is part of the Gaussian(R) 16 program.  It is based on
 the Gaussian(R) 09 system (copyright 2009, Gaussian, Inc.),
 the Gaussian(R) 03 system (copyright 2003, Gaussian, Inc.),
 the Gaussian(R) 98 system (copyright 1998, Gaussian, Inc.),
 the Gaussian(R) 94 system (copyright 1995, Gaussian, Inc.),
 the Gaussian 92(TM) system (copyright 1992, Gaussian, Inc.),
 the Gaussian 90(TM) system (copyright 1990, Gaussian, Inc.),
 the Gaussian 88(TM) system (copyright 1988, Gaussian, Inc.),
 the Gaussian 86(TM) system (copyright 1986, Carnegie Mellon
 University), and the Gaussian 82(TM) system (copyright 1983,
 Carnegie Mellon University). Gaussian is a federally registered
 trademark of Gaussian, Inc.
  
 This software contains proprietary and confidential information,
 including trade secrets, belonging to Gaussian, Inc.
  
 This software is provided under written license and may be
 used, copied, transmitted, or stored only in accord with that
 written license.
  
 The following legend is applicable only to US Government
 contracts under FAR:
  
                    RESTRICTED RIGHTS LEGEND
  
 Use, reproduction and disclosure by the US Government is
 subject to restrictions as set forth in subparagraphs (a)
 and (c) of the Commercial Computer Software - Restricted
 Rights clause in FAR 52.227-19.
  
 Gaussian, Inc.
 340 Quinnipiac St., Bldg. 40, Wallingford CT 06492
  
  
 ---------------------------------------------------------------
 Warning -- This program may not be used in any manner that
 competes with the business of Gaussian, Inc. or will provide
 assistance to any competitor of Gaussian, Inc.  The licensee
 of this program is prohibited from giving any competitor of
 Gaussian, Inc. access to this program.  By using this program,
 the user acknowledges that Gaussian, Inc. is engaged in the
 business of creating and licensing software in the field of
 computational chemistry and represents and warrants to the
 licensee that it is not a competitor of Gaussian, Inc. and that
 it will not use this program in any manner prohibited above.
 ---------------------------------------------------------------
  

 Cite this work as:
 Gaussian 16, Revision C.01,
 M. J. Frisch, G. W. Trucks, H. B. Schlegel, G. E. Scuseria, 
 M. A. Robb, J. R. Cheeseman, G. Scalmani, V. Barone, 
 G. A. Petersson, H. Nakatsuji, X. Li, M. Caricato, A. V. Marenich, 
 J. Bloino, B. G. Janesko, R. Gomperts, B. Mennucci, H. P. Hratchian, 
 J. V. Ortiz, A. F. Izmaylov, J. L. Sonnenberg, D. Williams-Young, 
 F. Ding, F. Lipparini, F. Egidi, J. Goings, B. Peng, A. Petrone, 
 T. Henderson, D. Ranasinghe, V. G. Zakrzewski, J. Gao, N. Rega, 
 G. Zheng, W. Liang, M. Hada, M. Ehara, K. Toyota, R. Fukuda, 
 J. Hasegawa, M. Ishida, T. Nakajima, Y. Honda, O. Kitao, H. Nakai, 
 T. Vreven, K. Throssell, J. A. Montgomery, Jr., J. E. Peralta, 
 F. Ogliaro, M. J. Bearpark, J. J. Heyd, E. N. Brothers, K. N. Kudin, 
 V. N. Staroverov, T. A. Keith, R. Kobayashi, J. Normand, 
 K. Raghavachari, A. P. Rendell, J. C. Burant, S. S. Iyengar, 
 J. Tomasi, M. Cossi, J. M. Millam, M. Klene, C. Adamo, R. Cammi, 
 J. W. Ochterski, R. L. Martin, K. Morokuma, O. Farkas, 
 J. B. Foresman, and D. J. Fox, Gaussian, Inc., Wallingford CT, 2019.
 
 ******************************************
 Gaussian 16:  ES64L-G16RevC.01  3-Jul-2019
                 7-Dec-2024 
 ******************************************
 Default route: SCF=Direct
 ----------------------------------------------------
 # m06/genecp scf=tight int=ultrafine 5d freq=noraman
 ----------------------------------------------------
 1/10=4,30=1,38=1/1,3;
 2/12=2,17=6,18=5,40=1/2;
 3/5=7,8=1,11=2,16=1,17=8,25=1,30=1,71=2,74=-54,75=-5,140=1/1,2,3;
 4//1;
 5/5=2,32=2,38=5,98=1/2;
 8/6=4,10=90,11=11/1;
 11/6=1,8=1,9=11,15=111,16=1/1,2,10;
 10/6=1/2;
 6/7=2,8=2,9=2,10=2,28=1/1;
 7/8=1,10=1,25=1/1,2,3,16;
 1/10=4,30=1/3;
 99//99;
 ------
 OPT-TS
 ------
 Symbolic Z-matrix:
 Charge =  0 Multiplicity = 1
 C                     0.61254  -2.513     0.88803 
 C                    -0.54991  -0.99743   2.19736 
 C                    -0.66076  -1.90813   3.23863 
 C                    -0.11558  -3.179     3.08226 
 C                     0.53102  -3.4788    1.89253 
 C                     1.22249  -2.80149  -0.42238 
 C                     1.33708  -2.21147  -2.65284 
 C                     2.18808  -3.26792  -2.94807 
 C                     2.57659  -4.11082  -1.91315 
 C                     2.08204  -3.88077  -0.63794 
 H                    -0.99406  -0.00186   2.24897 
 H                    -0.20486  -3.92919   3.86574 
 H                     0.93638  -4.47425   1.72576 
 H                     0.99793  -1.52002  -3.42219 
 H                     3.25473  -4.94194  -2.09646 
 H                     2.37432  -4.52922   0.18535 
 N                     0.07015  -1.28312   1.04075 
 N                     0.87978  -1.96872  -1.4226 
 Ir                   -0.254    -0.08422  -0.78657 
 O                    -1.63066   1.73674   1.22085 
 O                    -2.43618  -2.05252  -0.2832 
 O                     2.00868   0.833    -0.76507 
 B                    -2.12219  -0.77869  -0.79013 
 B                    -1.20214   1.55768  -0.11815 
 B                     2.71298   1.15748   0.4532 
 O                     3.89162   1.86008   0.10015 
 O                    -1.50499   2.71549  -0.83407 
 C                    -1.93377   3.73426   0.06776 
 C                    -2.44541   2.91319   1.28592 
 C                     2.58146   1.65821  -1.79683 
 C                     4.05293   1.74908  -1.30829 
 C                    -3.85183  -2.10776  -0.08987 
 C                    -4.36361  -1.09336  -1.14795 
 O                    -3.29961  -0.13779  -1.18703 
 C                    -2.24611   3.57561   2.63529 
 H                    -2.63306   2.92293   3.42987 
 H                    -1.18474   3.76506   2.83852 
 H                    -2.78788   4.53091   2.69189 
 C                    -3.89305   2.46559   1.12912 
 H                    -4.12766   1.74534   1.92609 
 H                    -4.59805   3.30429   1.20966 
 H                    -4.03619   1.95997   0.16435 
 C                    -0.72077   4.59898   0.39385 
 H                     0.0673    4.01518   0.88919 
 H                    -0.30385   4.98557  -0.54506 
 H                    -0.98118   5.45312   1.0343 
 C                    -2.98968   4.58547  -0.61232 
 H                    -2.53888   5.12449  -1.45536 
 H                    -3.80583   3.9714   -1.00729 
 H                    -3.40748   5.32901   0.08259 
 C                    -4.33343  -3.53197  -0.28164 
 H                    -4.01229  -3.93867  -1.2469 
 H                    -3.92021  -4.17321   0.50823 
 H                    -5.43041  -3.5876   -0.22434 
 C                    -4.12235  -1.65496   1.34139 
 H                    -5.18611  -1.72412   1.60807 
 H                    -3.55223  -2.30002   2.0242 
 H                    -3.78381  -0.6192    1.49279 
 C                    -4.47947  -1.70042  -2.54128 
 H                    -4.62279  -0.88874  -3.26523 
 H                    -3.56115  -2.23598  -2.81452 
 H                    -5.32954  -2.39196  -2.62184 
 C                    -5.65943  -0.39315  -0.788 
 H                    -5.92343   0.32239  -1.57782 
 H                    -6.4826   -1.11699  -0.69657 
 H                    -5.5774    0.16142   0.15371 
 C                     4.84581   0.48106  -1.61803 
 H                     5.7666    0.49278  -1.02055 
 H                     4.27782  -0.42081  -1.35093 
 H                     5.12445   0.41922  -2.67932 
 C                     4.81079   2.96425  -1.8078 
 H                     4.34149   3.89374  -1.46714 
 H                     5.83779   2.94361  -1.41969 
 H                     4.86365   2.97701  -2.90586 
 C                     1.86702   3.00352  -1.77671 
 H                     2.05763   3.53475  -0.83309 
 H                     2.19152   3.64743  -2.60597 
 H                     0.78448   2.83684  -1.86149 
 C                     2.40892   1.00631  -3.15205 
 H                     1.34217   0.96759  -3.41006 
 H                     2.92974   1.5927   -3.92288 
 H                     2.80881  -0.01477  -3.1653 
 H                    -0.61691   0.5903   -2.20223 
 C                     2.77246  -0.25327   2.37029 
 O                     3.12525  -0.26654   1.15309 
 C                     3.13076  -1.39234   3.27493 
 H                     3.63948  -0.98397   4.16111 
 H                     2.19451  -1.84016   3.64471 
 C                     1.89385   1.78533   1.71499 
 H                     0.81202   1.89872   1.54478 
 H                     2.30935   2.75221   2.03724 
 N                     2.0926    0.80565   2.78748 
 C                     1.55673   1.02965   4.1075 
 H                     1.6551    0.14067   4.73828 
 H                     2.07121   1.87138   4.59107 
 H                     0.49068   1.2825    4.02113 
 C                     3.99112  -2.44211   2.5962 
 H                     3.47772  -2.86204   1.72304 
 H                     4.93516  -2.01422   2.24183 
 H                     2.53773  -3.41894  -3.9663 
 H                    -1.18955  -1.6245    4.14647 
 H                     4.21744  -3.25652   3.29368 
 

 GradGradGradGradGradGradGradGradGradGradGradGradGradGradGradGradGradGrad
 Berny optimization.
 Initialization pass.
 Trust Radius=3.00D-01 FncErr=1.00D-07 GrdErr=1.00D-07 EigMax=2.50D+02 EigMin=1.00D-04
 Number of steps in this run=      2 maximum allowed number of steps=      2.
 GradGradGradGradGradGradGradGradGradGradGradGradGradGradGradGradGradGrad

 Stoichiometry    C33H55B3IrN3O7
 Framework group  C1[X(C33H55B3IrN3O7)]
 Deg. of freedom   300
 Full point group                 C1      NOp   1
 Largest Abelian subgroup         C1      NOp   1
 Largest concise Abelian subgroup C1      NOp   1
                         Standard orientation:                         
 ---------------------------------------------------------------------
 Center     Atomic      Atomic             Coordinates (Angstroms)
 Number     Number       Type             X           Y           Z
 ---------------------------------------------------------------------
      1          6           0        0.612542   -2.512998    0.888031
      2          6           0       -0.549909   -0.997429    2.197361
      3          6           0       -0.660758   -1.908129    3.238631
      4          6           0       -0.115577   -3.178999    3.082261
      5          6           0        0.531023   -3.478798    1.892531
      6          6           0        1.222493   -2.801487   -0.422379
      7          6           0        1.337082   -2.211467   -2.652839
      8          6           0        2.188083   -3.267916   -2.948069
      9          6           0        2.576594   -4.110816   -1.913149
     10          6           0        2.082044   -3.880767   -0.637939
     11          1           0       -0.994060   -0.001860    2.248971
     12          1           0       -0.204856   -3.929189    3.865741
     13          1           0        0.936384   -4.474248    1.725761
     14          1           0        0.997931   -1.520018   -3.422189
     15          1           0        3.254735   -4.941935   -2.096459
     16          1           0        2.374324   -4.529216    0.185351
     17          7           0        0.070151   -1.283119    1.040751
     18          7           0        0.879782   -1.968718   -1.422599
     19         77           0       -0.254000   -0.084219   -0.786569
     20          8           0       -1.630662    1.736740    1.220851
     21          8           0       -2.436178   -2.052521   -0.283199
     22          8           0        2.008679    0.833003   -0.765069
     23          5           0       -2.122189   -0.778691   -0.790129
     24          5           0       -1.202142    1.557680   -0.118149
     25          5           0        2.712979    1.157484    0.453201
     26          8           0        3.891618    1.860085    0.100151
     27          8           0       -1.504993    2.715490   -0.834069
     28          6           0       -1.933774    3.734259    0.067761
     29          6           0       -2.445413    2.913189    1.285921
     30          6           0        2.581458    1.658214   -1.796829
     31          6           0        4.052928    1.749085   -1.308289
     32          6           0       -3.851828   -2.107762   -0.089869
     33          6           0       -4.363609   -1.093363   -1.147949
     34          8           0       -3.299610   -0.137792   -1.187029
     35          6           0       -2.246114    3.575609    2.635291
     36          1           0       -2.633063    2.922929    3.429871
     37          1           0       -1.184744    3.765060    2.838521
     38          1           0       -2.787885    4.530909    2.691891
     39          6           0       -3.893053    2.465587    1.129121
     40          1           0       -4.127662    1.745337    1.926091
     41          1           0       -4.598053    3.304287    1.209661
     42          1           0       -4.036192    1.959967    0.164351
     43          6           0       -0.720775    4.598981    0.393851
     44          1           0        0.067296    4.015181    0.889191
     45          1           0       -0.303855    4.985571   -0.545059
     46          1           0       -0.981186    5.453120    1.034301
     47          6           0       -2.989685    4.585468   -0.612319
     48          1           0       -2.538885    5.124489   -1.455359
     49          1           0       -3.805834    3.971398   -1.007289
     50          1           0       -3.407485    5.329008    0.082591
     51          6           0       -4.333427   -3.531973   -0.281639
     52          1           0       -4.012286   -3.938673   -1.246899
     53          1           0       -3.920206   -4.173213    0.508231
     54          1           0       -5.430407   -3.587604   -0.224339
     55          6           0       -4.122349   -1.654963    1.341391
     56          1           0       -5.186108   -1.724124    1.608071
     57          1           0       -3.552228   -2.300022    2.024201
     58          1           0       -3.783810   -0.619202    1.492791
     59          6           0       -4.479468   -1.700423   -2.541279
     60          1           0       -4.622789   -0.888743   -3.265229
     61          1           0       -3.561148   -2.235982   -2.814519
     62          1           0       -5.329538   -2.391964   -2.621839
     63          6           0       -5.659430   -0.393154   -0.787999
     64          1           0       -5.923431    0.322385   -1.577819
     65          1           0       -6.482599   -1.116995   -0.696569
     66          1           0       -5.577400    0.161416    0.153711
     67          6           0        4.845809    0.481066   -1.618029
     68          1           0        5.766599    0.492787   -1.020549
     69          1           0        4.277820   -0.420804   -1.350929
     70          1           0        5.124449    0.419226   -2.679319
     71          6           0        4.810787    2.964256   -1.807799
     72          1           0        4.341486    3.893746   -1.467139
     73          1           0        5.837787    2.943617   -1.419689
     74          1           0        4.863647    2.977016   -2.905859
     75          6           0        1.867017    3.003523   -1.776709
     76          1           0        2.057626    3.534753   -0.833089
     77          1           0        2.191516    3.647434   -2.605969
     78          1           0        0.784477    2.836842   -1.861489
     79          6           0        2.408919    1.006314   -3.152049
     80          1           0        1.342169    0.967593   -3.410059
     81          1           0        2.929738    1.592704   -3.922879
     82          1           0        2.808810   -0.014766   -3.165299
     83          1           0       -0.616911    0.590301   -2.202229
     84          6           0        2.772460   -0.253266    2.370291
     85          8           0        3.125250   -0.266536    1.153091
     86          6           0        3.130761   -1.392336    3.274931
     87          1           0        3.639481   -0.983965    4.161111
     88          1           0        2.194512   -1.840156    3.644711
     89          6           0        1.893848    1.785333    1.714991
     90          1           0        0.812018    1.898722    1.544781
     91          1           0        2.309347    2.752214    2.037241
     92          7           0        2.092599    0.805653    2.787481
     93          6           0        1.556729    1.029653    4.107501
     94          1           0        1.655100    0.140673    4.738281
     95          1           0        2.071208    1.871383    4.591071
     96          1           0        0.490679    1.282502    4.021131
     97          6           0        3.991122   -2.442105    2.596201
     98          1           0        3.477723   -2.862035    1.723041
     99          1           0        4.935162   -2.014214    2.241831
    100          1           0        2.537733   -3.418936   -3.966299
    101          1           0       -1.189549   -1.624500    4.146471
    102          1           0        4.217443   -3.256514    3.293681
 ---------------------------------------------------------------------
 Rotational constants (GHZ):           0.0832838           0.0657750           0.0558407
 General basis read from cards:  (5D, 7F)
 ======================================================================================================
                                       Pseudopotential Parameters
 ======================================================================================================
  Center     Atomic      Valence      Angular      Power
  Number     Number     Electrons     Momentum     of R      Exponent        Coefficient   SO-Coeffient
 ======================================================================================================
    1          6
                                   No pseudopotential on this center.
    2          6
                                   No pseudopotential on this center.
    3          6
                                   No pseudopotential on this center.
    4          6
                                   No pseudopotential on this center.
    5          6
                                   No pseudopotential on this center.
    6          6
                                   No pseudopotential on this center.
    7          6
                                   No pseudopotential on this center.
    8          6
                                   No pseudopotential on this center.
    9          6
                                   No pseudopotential on this center.
   10          6
                                   No pseudopotential on this center.
   11          1
                                   No pseudopotential on this center.
   12          1
                                   No pseudopotential on this center.
   13          1
                                   No pseudopotential on this center.
   14          1
                                   No pseudopotential on this center.
   15          1
                                   No pseudopotential on this center.
   16          1
                                   No pseudopotential on this center.
   17          7
                                   No pseudopotential on this center.
   18          7
                                   No pseudopotential on this center.
   19         77           17
                                      G and up 
                                                     1      823.5880147       -0.15780140    0.00000000
                                                     2      364.6613336    -1517.52704460    0.00000000
                                                     2       55.7082801     -316.53065290    0.00000000
                                                     2       12.0464544      -91.88809410    0.00000000
                                                     2        3.5120610       -9.22417730    0.00000000
                                      S - G
                                                     0      188.0490770        3.15780140    0.00000000
                                                     1      340.4194712       26.83225770    0.00000000
                                                     2      128.2373673      800.42500070    0.00000000
                                                     2       33.8644961      369.40506830    0.00000000
                                                     2        4.7560005      242.41718990    0.00000000
                                                     2        3.9649974     -118.21732820    0.00000000
                                      P - G
                                                     0      289.7291139        2.15780140    0.00000000
                                                     1       87.4633789       61.96786100    0.00000000
                                                     2       30.4363766      269.05819860    0.00000000
                                                     2        4.0553412      231.16547930    0.00000000
                                                     2        3.5525341     -133.69526670    0.00000000
                                      D - G
                                                     0      136.4017106        3.15780140    0.00000000
                                                     1       95.0776925       45.93498030    0.00000000
                                                     2       49.2258410      359.03446680    0.00000000
                                                     2       15.0874145      176.47401190    0.00000000
                                                     2        4.0405764       54.51552860    0.00000000
                                      F - G
                                                     0      127.3507908        3.95461970    0.00000000
                                                     1       66.2364374       52.97736550    0.00000000
                                                     2       34.4299229      274.86433830    0.00000000
                                                     2       10.1995721      137.20473380    0.00000000
                                                     2        2.5409702       14.86333050    0.00000000
   20          8
                                   No pseudopotential on this center.
   21          8
                                   No pseudopotential on this center.
   22          8
                                   No pseudopotential on this center.
   23          5
                                   No pseudopotential on this center.
   24          5
                                   No pseudopotential on this center.
   25          5
                                   No pseudopotential on this center.
   26          8
                                   No pseudopotential on this center.
   27          8
                                   No pseudopotential on this center.
   28          6
                                   No pseudopotential on this center.
   29          6
                                   No pseudopotential on this center.
   30          6
                                   No pseudopotential on this center.
   31          6
                                   No pseudopotential on this center.
   32          6
                                   No pseudopotential on this center.
   33          6
                                   No pseudopotential on this center.
   34          8
                                   No pseudopotential on this center.
   35          6
                                   No pseudopotential on this center.
   36          1
                                   No pseudopotential on this center.
   37          1
                                   No pseudopotential on this center.
   38          1
                                   No pseudopotential on this center.
   39          6
                                   No pseudopotential on this center.
   40          1
                                   No pseudopotential on this center.
   41          1
                                   No pseudopotential on this center.
   42          1
                                   No pseudopotential on this center.
   43          6
                                   No pseudopotential on this center.
   44          1
                                   No pseudopotential on this center.
   45          1
                                   No pseudopotential on this center.
   46          1
                                   No pseudopotential on this center.
   47          6
                                   No pseudopotential on this center.
   48          1
                                   No pseudopotential on this center.
   49          1
                                   No pseudopotential on this center.
   50          1
                                   No pseudopotential on this center.
   51          6
                                   No pseudopotential on this center.
   52          1
                                   No pseudopotential on this center.
   53          1
                                   No pseudopotential on this center.
   54          1
                                   No pseudopotential on this center.
   55          6
                                   No pseudopotential on this center.
   56          1
                                   No pseudopotential on this center.
   57          1
                                   No pseudopotential on this center.
   58          1
                                   No pseudopotential on this center.
   59          6
                                   No pseudopotential on this center.
   60          1
                                   No pseudopotential on this center.
   61          1
                                   No pseudopotential on this center.
   62          1
                                   No pseudopotential on this center.
   63          6
                                   No pseudopotential on this center.
   64          1
                                   No pseudopotential on this center.
   65          1
                                   No pseudopotential on this center.
   66          1
                                   No pseudopotential on this center.
   67          6
                                   No pseudopotential on this center.
   68          1
                                   No pseudopotential on this center.
   69          1
                                   No pseudopotential on this center.
   70          1
                                   No pseudopotential on this center.
   71          6
                                   No pseudopotential on this center.
   72          1
                                   No pseudopotential on this center.
   73          1
                                   No pseudopotential on this center.
   74          1
                                   No pseudopotential on this center.
   75          6
                                   No pseudopotential on this center.
   76          1
                                   No pseudopotential on this center.
   77          1
                                   No pseudopotential on this center.
   78          1
                                   No pseudopotential on this center.
   79          6
                                   No pseudopotential on this center.
   80          1
                                   No pseudopotential on this center.
   81          1
                                   No pseudopotential on this center.
   82          1
                                   No pseudopotential on this center.
   83          1
                                   No pseudopotential on this center.
   84          6
                                   No pseudopotential on this center.
   85          8
                                   No pseudopotential on this center.
   86          6
                                   No pseudopotential on this center.
   87          1
                                   No pseudopotential on this center.
   88          1
                                   No pseudopotential on this center.
   89          6
                                   No pseudopotential on this center.
   90          1
                                   No pseudopotential on this center.
   91          1
                                   No pseudopotential on this center.
   92          7
                                   No pseudopotential on this center.
   93          6
                                   No pseudopotential on this center.
   94          1
                                   No pseudopotential on this center.
   95          1
                                   No pseudopotential on this center.
   96          1
                                   No pseudopotential on this center.
   97          6
                                   No pseudopotential on this center.
   98          1
                                   No pseudopotential on this center.
   99          1
                                   No pseudopotential on this center.
  100          1
                                   No pseudopotential on this center.
  101          1
                                   No pseudopotential on this center.
  102          1
                                   No pseudopotential on this center.
 ======================================================================================================
 There are   824 symmetry adapted cartesian basis functions of A   symmetry.
 There are   776 symmetry adapted basis functions of A   symmetry.
   776 basis functions,  1551 primitive gaussians,   824 cartesian basis functions
   181 alpha electrons      181 beta electrons
       nuclear repulsion energy      7506.6636353339 Hartrees.
 NAtoms=  102 NActive=  102 NUniq=  102 SFac= 1.00D+00 NAtFMM=   60 NAOKFM=T Big=T
 Integral buffers will be    131072 words long.
 Raffenetti 2 integral format.
 Two-electron integral symmetry is turned on.
 One-electron integrals computed using PRISM.
   1 Symmetry operations used in ECPInt.
 ECPInt:  NShTT=   45753 NPrTT=  276657 LenC2=   36547 LenP2D=  114239.
 LDataN:  DoStor=T MaxTD1= 6 Len=  172
 NBasis=   776 RedAO= T EigKep=  6.08D-04  NBF=   776
 NBsUse=   776 1.00D-06 EigRej= -1.00D+00 NBFU=   776
 Defaulting to unpruned grid for atomic number  77.
 ExpMin= 2.90D-02 ExpMax= 5.48D+03 ExpMxC= 8.25D+02 IAcc=3 IRadAn=         5 AccDes= 0.00D+00
 Harris functional with IExCor= 1009 and IRadAn=       5 diagonalized for initial guess.
 HarFok:  IExCor= 1009 AccDes= 0.00D+00 IRadAn=         5 IDoV= 1 UseB2=F ITyADJ=14
 ICtDFT=  3500011 ScaDFX=  1.000000  1.000000  1.000000  1.000000
 Defaulting to unpruned grid for atomic number  77.
 FoFCou: FMM=F IPFlag=           0 FMFlag=      100000 FMFlg1=        2001
         NFxFlg=           0 DoJE=T BraDBF=F KetDBF=T FulRan=T
         wScrn=  0.000000 ICntrl=       500 IOpCl=  0 I1Cent=   200000004 NGrid=           0
         NMat0=    1 NMatS0=      1 NMatT0=    0 NMatD0=    1 NMtDS0=    0 NMtDT0=    0
 Petite list used in FoFCou.
 Requested convergence on RMS density matrix=1.00D-08 within 128 cycles.
 Requested convergence on MAX density matrix=1.00D-06.
 Requested convergence on             energy=1.00D-06.
 No special actions if energy rises.
 Defaulting to unpruned grid for atomic number  77.
 Defaulting to unpruned grid for atomic number  77.
 Defaulting to unpruned grid for atomic number  77.
 Defaulting to unpruned grid for atomic number  77.
 Defaulting to unpruned grid for atomic number  77.
 Defaulting to unpruned grid for atomic number  77.
 Defaulting to unpruned grid for atomic number  77.
 Defaulting to unpruned grid for atomic number  77.
 Defaulting to unpruned grid for atomic number  77.
 Defaulting to unpruned grid for atomic number  77.
 Defaulting to unpruned grid for atomic number  77.
 Defaulting to unpruned grid for atomic number  77.
 Defaulting to unpruned grid for atomic number  77.
 Defaulting to unpruned grid for atomic number  77.
 Defaulting to unpruned grid for atomic number  77.
 Defaulting to unpruned grid for atomic number  77.
 SCF Done:  E(RM06) =  -2159.70918285     A.U. after   16 cycles
            NFock= 16  Conv=0.84D-08     -V/T= 2.0408
 DoSCS=F DFT=T ScalE2(SS,OS)=  1.000000  1.000000
 Range of M.O.s used for correlation:     1   776
 NBasis=   776 NAE=   181 NBE=   181 NFC=     0 NFV=     0
 NROrb=    776 NOA=   181 NOB=   181 NVA=   595 NVB=   595
   1 Symmetry operations used in ECPInt.
 ECPInt:  NShTT=   45753 NPrTT=  276657 LenC2=   36547 LenP2D=  114239.
 LDataN:  DoStor=T MaxTD1= 7 Len=  274
 Number of processors reduced to   8 by ecpmxn.
 Symmetrizing basis deriv contribution to polar:
 IMax=3 JMax=2 DiffMx= 0.00D+00
 G2DrvN: will do   103 centers at a time, making    1 passes.
 Calling FoFCou, ICntrl=  3107 FMM=T I1Cent=   0 AccDes= 0.00D+00.
 Defaulting to unpruned grid for atomic number  77.
 Defaulting to unpruned grid for atomic number  77.
 Defaulting to unpruned grid for atomic number  77.
 Defaulting to unpruned grid for atomic number  77.
 Defaulting to unpruned grid for atomic number  77.
 Defaulting to unpruned grid for atomic number  77.
 Defaulting to unpruned grid for atomic number  77.
 Defaulting to unpruned grid for atomic number  77.
 Defaulting to unpruned grid for atomic number  77.
 Defaulting to unpruned grid for atomic number  77.
 Defaulting to unpruned grid for atomic number  77.
 Defaulting to unpruned grid for atomic number  77.
 Defaulting to unpruned grid for atomic number  77.
 Defaulting to unpruned grid for atomic number  77.
 Defaulting to unpruned grid for atomic number  77.
 Defaulting to unpruned grid for atomic number  77.
 End of G2Drv F.D. properties file   721 does not exist.
 End of G2Drv F.D. properties file   722 does not exist.
 End of G2Drv F.D. properties file   788 does not exist.
          IDoAtm=11111111111111111111111111111111111111111111111111
          IDoAtm=11111111111111111111111111111111111111111111111111
          IDoAtm=11
          Differentiating once with respect to electric field.
                with respect to dipole field.
          Differentiating once with respect to nuclear coordinates.
 Defaulting to unpruned grid for atomic number  77.
 CalDSu exits because no D1Ps are significant.
 Defaulting to unpruned grid for atomic number  77.
 Defaulting to unpruned grid for atomic number  77.
 Defaulting to unpruned grid for atomic number  77.
 Defaulting to unpruned grid for atomic number  77.
 Defaulting to unpruned grid for atomic number  77.
 Defaulting to unpruned grid for atomic number  77.
 Defaulting to unpruned grid for atomic number  77.
 Defaulting to unpruned grid for atomic number  77.
 Defaulting to unpruned grid for atomic number  77.
 Defaulting to unpruned grid for atomic number  77.
 Defaulting to unpruned grid for atomic number  77.
 Defaulting to unpruned grid for atomic number  77.
 Defaulting to unpruned grid for atomic number  77.
 Defaulting to unpruned grid for atomic number  77.
 Defaulting to unpruned grid for atomic number  77.
 Defaulting to unpruned grid for atomic number  77.
          There are   309 degrees of freedom in the 1st order CPHF.  IDoFFX=6 NUNeed=     3.
    306 vectors produced by pass  0 Test12= 1.08D-13 1.00D-09 XBig12= 4.65D+02 9.09D+00.
 AX will form    72 AO Fock derivatives at one time.
    306 vectors produced by pass  1 Test12= 1.08D-13 1.00D-09 XBig12= 7.84D+01 1.05D+00.
    306 vectors produced by pass  2 Test12= 1.08D-13 1.00D-09 XBig12= 1.11D+00 1.03D-01.
    306 vectors produced by pass  3 Test12= 1.08D-13 1.00D-09 XBig12= 6.54D-03 1.15D-02.
    306 vectors produced by pass  4 Test12= 1.08D-13 1.00D-09 XBig12= 1.81D-05 3.83D-04.
    272 vectors produced by pass  5 Test12= 1.08D-13 1.00D-09 XBig12= 3.50D-08 1.48D-05.
     75 vectors produced by pass  6 Test12= 1.08D-13 1.00D-09 XBig12= 5.50D-11 5.69D-07.
      3 vectors produced by pass  7 Test12= 1.08D-13 1.00D-09 XBig12= 8.02D-14 1.87D-08.
 InvSVY:  IOpt=1 It=  1 EMax= 1.78D-14
 Solved reduced A of dimension  1880 with   309 vectors.
 Isotropic polarizability for W=    0.000000      457.66 Bohr**3.
 End of Minotr F.D. properties file   721 does not exist.
 End of Minotr F.D. properties file   722 does not exist.
 End of Minotr F.D. properties file   788 does not exist.
 Hyperfine terms turned off by default for NAtoms > 100.

 **********************************************************************

            Population analysis using the SCF Density.

 **********************************************************************

 Orbital symmetries:
       Occupied  (A) (A) (A) (A) (A) (A) (A) (A) (A) (A) (A) (A)
                 (A) (A) (A) (A) (A) (A) (A) (A) (A) (A) (A) (A)
                 (A) (A) (A) (A) (A) (A) (A) (A) (A) (A) (A) (A)
                 (A) (A) (A) (A) (A) (A) (A) (A) (A) (A) (A) (A)
                 (A) (A) (A) (A) (A) (A) (A) (A) (A) (A) (A) (A)
                 (A) (A) (A) (A) (A) (A) (A) (A) (A) (A) (A) (A)
                 (A) (A) (A) (A) (A) (A) (A) (A) (A) (A) (A) (A)
                 (A) (A) (A) (A) (A) (A) (A) (A) (A) (A) (A) (A)
                 (A) (A) (A) (A) (A) (A) (A) (A) (A) (A) (A) (A)
                 (A) (A) (A) (A) (A) (A) (A) (A) (A) (A) (A) (A)
                 (A) (A) (A) (A) (A) (A) (A) (A) (A) (A) (A) (A)
                 (A) (A) (A) (A) (A) (A) (A) (A) (A) (A) (A) (A)
                 (A) (A) (A) (A) (A) (A) (A) (A) (A) (A) (A) (A)
                 (A) (A) (A) (A) (A) (A) (A) (A) (A) (A) (A) (A)
                 (A) (A) (A) (A) (A) (A) (A) (A) (A) (A) (A) (A)
                 (A)
       Virtual   (A) (A) (A) (A) (A) (A) (A) (A) (A) (A) (A) (A)
                 (A) (A) (A) (A) (A) (A) (A) (A) (A) (A) (A) (A)
                 (A) (A) (A) (A) (A) (A) (A) (A) (A) (A) (A) (A)
                 (A) (A) (A) (A) (A) (A) (A) (A) (A) (A) (A) (A)
                 (A) (A) (A) (A) (A) (A) (A) (A) (A) (A) (A) (A)
                 (A) (A) (A) (A) (A) (A) (A) (A) (A) (A) (A) (A)
                 (A) (A) (A) (A) (A) (A) (A) (A) (A) (A) (A) (A)
                 (A) (A) (A) (A) (A) (A) (A) (A) (A) (A) (A) (A)
                 (A) (A) (A) (A) (A) (A) (A) (A) (A) (A) (A) (A)
                 (A) (A) (A) (A) (A) (A) (A) (A) (A) (A) (A) (A)
                 (A) (A) (A) (A) (A) (A) (A) (A) (A) (A) (A) (A)
                 (A) (A) (A) (A) (A) (A) (A) (A) (A) (A) (A) (A)
                 (A) (A) (A) (A) (A) (A) (A) (A) (A) (A) (A) (A)
                 (A) (A) (A) (A) (A) (A) (A) (A) (A) (A) (A) (A)
                 (A) (A) (A) (A) (A) (A) (A) (A) (A) (A) (A) (A)
                 (A) (A) (A) (A) (A) (A) (A) (A) (A) (A) (A) (A)
                 (A) (A) (A) (A) (A) (A) (A) (A) (A) (A) (A) (A)
                 (A) (A) (A) (A) (A) (A) (A) (A) (A) (A) (A) (A)
                 (A) (A) (A) (A) (A) (A) (A) (A) (A) (A) (A) (A)
                 (A) (A) (A) (A) (A) (A) (A) (A) (A) (A) (A) (A)
                 (A) (A) (A) (A) (A) (A) (A) (A) (A) (A) (A) (A)
                 (A) (A) (A) (A) (A) (A) (A) (A) (A) (A) (A) (A)
                 (A) (A) (A) (A) (A) (A) (A) (A) (A) (A) (A) (A)
                 (A) (A) (A) (A) (A) (A) (A) (A) (A) (A) (A) (A)
                 (A) (A) (A) (A) (A) (A) (A) (A) (A) (A) (A) (A)
                 (A) (A) (A) (A) (A) (A) (A) (A) (A) (A) (A) (A)
                 (A) (A) (A) (A) (A) (A) (A) (A) (A) (A) (A) (A)
                 (A) (A) (A) (A) (A) (A) (A) (A) (A) (A) (A) (A)
                 (A) (A) (A) (A) (A) (A) (A) (A) (A) (A) (A) (A)
                 (A) (A) (A) (A) (A) (A) (A) (A) (A) (A) (A) (A)
                 (A) (A) (A) (A) (A) (A) (A) (A) (A) (A) (A) (A)
                 (A) (A) (A) (A) (A) (A) (A) (A) (A) (A) (A) (A)
                 (A) (A) (A) (A) (A) (A) (A) (A) (A) (A) (A) (A)
                 (A) (A) (A) (A) (A) (A) (A) (A) (A) (A) (A) (A)
                 (A) (A) (A) (A) (A) (A) (A) (A) (A) (A) (A) (A)
                 (A) (A) (A) (A) (A) (A) (A) (A) (A) (A) (A) (A)
                 (A) (A) (A) (A) (A) (A) (A) (A) (A) (A) (A) (A)
                 (A) (A) (A) (A) (A) (A) (A) (A) (A) (A) (A) (A)
                 (A) (A) (A) (A) (A) (A) (A) (A) (A) (A) (A) (A)
                 (A) (A) (A) (A) (A) (A) (A) (A) (A) (A) (A) (A)
                 (A) (A) (A) (A) (A) (A) (A) (A) (A) (A) (A) (A)
                 (A) (A) (A) (A) (A) (A) (A) (A) (A) (A) (A) (A)
                 (A) (A) (A) (A) (A) (A) (A) (A) (A) (A) (A) (A)
                 (A) (A) (A) (A) (A) (A) (A) (A) (A) (A) (A) (A)
                 (A) (A) (A) (A) (A) (A) (A) (A) (A) (A) (A) (A)
                 (A) (A) (A) (A) (A) (A) (A) (A) (A) (A) (A) (A)
                 (A) (A) (A) (A) (A) (A) (A) (A) (A) (A) (A) (A)
                 (A) (A) (A) (A) (A) (A) (A) (A) (A) (A) (A) (A)
                 (A) (A) (A) (A) (A) (A) (A) (A) (A) (A) (A) (A)
                 (A) (A) (A) (A) (A) (A) (A)
 The electronic state is 1-A.
 Alpha  occ. eigenvalues --  -19.24865 -19.19186 -19.19029 -19.18464 -19.18320
 Alpha  occ. eigenvalues --  -19.17996 -19.17272 -14.45785 -14.44160 -14.43375
 Alpha  occ. eigenvalues --  -10.38236 -10.31185 -10.31114 -10.29993 -10.29760
 Alpha  occ. eigenvalues --  -10.29194 -10.28367 -10.28354 -10.28176 -10.28170
 Alpha  occ. eigenvalues --  -10.28011 -10.27846 -10.27815 -10.27795 -10.27787
 Alpha  occ. eigenvalues --  -10.27718 -10.27621 -10.27328 -10.27198 -10.25418
 Alpha  occ. eigenvalues --  -10.23676 -10.22412 -10.21953 -10.21654 -10.21612
 Alpha  occ. eigenvalues --  -10.21352 -10.21346 -10.21310 -10.21189 -10.21126
 Alpha  occ. eigenvalues --  -10.21079 -10.21007 -10.19966  -6.80795  -6.77417
 Alpha  occ. eigenvalues --   -6.76991  -3.58811  -2.01366  -2.00680  -2.00150
 Alpha  occ. eigenvalues --   -1.10994  -1.04459  -1.04343  -1.04095  -0.99031
 Alpha  occ. eigenvalues --   -0.97477  -0.97412  -0.97402  -0.97365  -0.96521
 Alpha  occ. eigenvalues --   -0.83757  -0.82958  -0.82070  -0.81936  -0.79163
 Alpha  occ. eigenvalues --   -0.79059  -0.78696  -0.76704  -0.74894  -0.73669
 Alpha  occ. eigenvalues --   -0.73636  -0.73209  -0.71847  -0.69458  -0.69250
 Alpha  occ. eigenvalues --   -0.68686  -0.68234  -0.67241  -0.66649  -0.66548
 Alpha  occ. eigenvalues --   -0.66090  -0.65183  -0.63980  -0.62780  -0.60536
 Alpha  occ. eigenvalues --   -0.60339  -0.60107  -0.57706  -0.56819  -0.55941
 Alpha  occ. eigenvalues --   -0.53604  -0.53159  -0.53112  -0.52788  -0.52501
 Alpha  occ. eigenvalues --   -0.52104  -0.52082  -0.51661  -0.51453  -0.50300
 Alpha  occ. eigenvalues --   -0.49209  -0.48984  -0.47657  -0.46795  -0.46346
 Alpha  occ. eigenvalues --   -0.46211  -0.45854  -0.45456  -0.45256  -0.45114
 Alpha  occ. eigenvalues --   -0.45030  -0.44767  -0.44571  -0.44480  -0.43515
 Alpha  occ. eigenvalues --   -0.43361  -0.43166  -0.42941  -0.42712  -0.42520
 Alpha  occ. eigenvalues --   -0.42254  -0.42182  -0.41948  -0.41614  -0.40606
 Alpha  occ. eigenvalues --   -0.39954  -0.39878  -0.39288  -0.39240  -0.39194
 Alpha  occ. eigenvalues --   -0.39020  -0.38734  -0.38618  -0.38490  -0.38426
 Alpha  occ. eigenvalues --   -0.38349  -0.38266  -0.37949  -0.37853  -0.37725
 Alpha  occ. eigenvalues --   -0.37401  -0.37211  -0.36530  -0.36334  -0.35911
 Alpha  occ. eigenvalues --   -0.35775  -0.35662  -0.35564  -0.35453  -0.34892
 Alpha  occ. eigenvalues --   -0.34872  -0.34667  -0.34209  -0.33943  -0.33751
 Alpha  occ. eigenvalues --   -0.33599  -0.33273  -0.32648  -0.32568  -0.32238
 Alpha  occ. eigenvalues --   -0.31902  -0.31012  -0.30798  -0.29983  -0.29943
 Alpha  occ. eigenvalues --   -0.29897  -0.28945  -0.28797  -0.28482  -0.27766
 Alpha  occ. eigenvalues --   -0.26300  -0.26217  -0.25335  -0.25237  -0.24921
 Alpha  occ. eigenvalues --   -0.24359  -0.24177  -0.23099  -0.18779  -0.18701
 Alpha  occ. eigenvalues --   -0.17856
 Alpha virt. eigenvalues --   -0.06297  -0.03329  -0.02666  -0.00147   0.02048
 Alpha virt. eigenvalues --    0.03505   0.05545   0.06591   0.07509   0.07977
 Alpha virt. eigenvalues --    0.08449   0.09214   0.09948   0.10189   0.10476
 Alpha virt. eigenvalues --    0.11155   0.11407   0.11648   0.12292   0.12547
 Alpha virt. eigenvalues --    0.13057   0.13304   0.13627   0.13762   0.14026
 Alpha virt. eigenvalues --    0.14515   0.14758   0.15020   0.15124   0.15406
 Alpha virt. eigenvalues --    0.15558   0.15695   0.15905   0.15997   0.16199
 Alpha virt. eigenvalues --    0.16298   0.16485   0.16652   0.16785   0.16931
 Alpha virt. eigenvalues --    0.17004   0.17365   0.17652   0.17900   0.18192
 Alpha virt. eigenvalues --    0.18355   0.18497   0.18582   0.18830   0.19007
 Alpha virt. eigenvalues --    0.19233   0.19352   0.19614   0.19993   0.20054
 Alpha virt. eigenvalues --    0.20259   0.20459   0.20597   0.20809   0.21084
 Alpha virt. eigenvalues --    0.21217   0.21389   0.21706   0.22028   0.22059
 Alpha virt. eigenvalues --    0.22287   0.22836   0.23039   0.23280   0.23634
 Alpha virt. eigenvalues --    0.24006   0.24104   0.24503   0.24810   0.24995
 Alpha virt. eigenvalues --    0.25288   0.25803   0.25873   0.26300   0.26430
 Alpha virt. eigenvalues --    0.26777   0.27133   0.27409   0.27493   0.27820
 Alpha virt. eigenvalues --    0.28271   0.28505   0.28786   0.29046   0.29321
 Alpha virt. eigenvalues --    0.29604   0.29830   0.30182   0.30402   0.30820
 Alpha virt. eigenvalues --    0.31465   0.31794   0.32440   0.32789   0.33479
 Alpha virt. eigenvalues --    0.33986   0.34847   0.35674   0.35842   0.36335
 Alpha virt. eigenvalues --    0.37296   0.38355   0.38626   0.39234   0.39566
 Alpha virt. eigenvalues --    0.40160   0.40949   0.41176   0.41631   0.43171
 Alpha virt. eigenvalues --    0.44163   0.45705   0.46417   0.47499   0.47920
 Alpha virt. eigenvalues --    0.48284   0.49036   0.50221   0.50672   0.50980
 Alpha virt. eigenvalues --    0.51480   0.51641   0.52158   0.52382   0.52669
 Alpha virt. eigenvalues --    0.53384   0.53604   0.53909   0.54216   0.54296
 Alpha virt. eigenvalues --    0.55817   0.56034   0.56658   0.56692   0.56854
 Alpha virt. eigenvalues --    0.57226   0.57324   0.57712   0.57866   0.57926
 Alpha virt. eigenvalues --    0.58301   0.58691   0.59129   0.59279   0.59713
 Alpha virt. eigenvalues --    0.59873   0.59965   0.60176   0.60349   0.60643
 Alpha virt. eigenvalues --    0.60971   0.61504   0.61907   0.62247   0.62416
 Alpha virt. eigenvalues --    0.62690   0.63032   0.63375   0.63698   0.63947
 Alpha virt. eigenvalues --    0.64277   0.64951   0.65362   0.65766   0.66037
 Alpha virt. eigenvalues --    0.66422   0.66773   0.67134   0.67589   0.67654
 Alpha virt. eigenvalues --    0.68074   0.68513   0.68753   0.69449   0.69995
 Alpha virt. eigenvalues --    0.70494   0.70876   0.70961   0.71141   0.71678
 Alpha virt. eigenvalues --    0.72139   0.72516   0.72969   0.73559   0.73751
 Alpha virt. eigenvalues --    0.73813   0.74124   0.74495   0.75066   0.75306
 Alpha virt. eigenvalues --    0.75854   0.76069   0.76683   0.76764   0.77297
 Alpha virt. eigenvalues --    0.77437   0.78006   0.78626   0.78804   0.79007
 Alpha virt. eigenvalues --    0.79592   0.79986   0.80093   0.80932   0.81139
 Alpha virt. eigenvalues --    0.81569   0.81704   0.82134   0.82489   0.83123
 Alpha virt. eigenvalues --    0.83309   0.83596   0.84311   0.84327   0.84778
 Alpha virt. eigenvalues --    0.84862   0.85238   0.85443   0.85587   0.85893
 Alpha virt. eigenvalues --    0.86417   0.86664   0.86822   0.86892   0.87169
 Alpha virt. eigenvalues --    0.87289   0.87845   0.87862   0.88194   0.88456
 Alpha virt. eigenvalues --    0.88740   0.89075   0.89374   0.89632   0.89812
 Alpha virt. eigenvalues --    0.90145   0.90326   0.90410   0.90524   0.90856
 Alpha virt. eigenvalues --    0.90983   0.91024   0.91433   0.91806   0.91996
 Alpha virt. eigenvalues --    0.92049   0.92490   0.92706   0.93021   0.93488
 Alpha virt. eigenvalues --    0.93723   0.93943   0.94463   0.94903   0.95078
 Alpha virt. eigenvalues --    0.95465   0.95896   0.96162   0.96510   0.96738
 Alpha virt. eigenvalues --    0.97018   0.97250   0.97815   0.98142   0.98353
 Alpha virt. eigenvalues --    0.98619   0.98851   0.99499   0.99721   0.99981
 Alpha virt. eigenvalues --    1.00616   1.00784   1.01424   1.02044   1.02462
 Alpha virt. eigenvalues --    1.03315   1.03927   1.04744   1.05048   1.05564
 Alpha virt. eigenvalues --    1.06320   1.07203   1.07560   1.07821   1.07888
 Alpha virt. eigenvalues --    1.08697   1.10205   1.10377   1.11001   1.11215
 Alpha virt. eigenvalues --    1.12021   1.13432   1.14133   1.14567   1.16052
 Alpha virt. eigenvalues --    1.16702   1.17410   1.18157   1.18200   1.18866
 Alpha virt. eigenvalues --    1.19423   1.20142   1.21168   1.21684   1.22346
 Alpha virt. eigenvalues --    1.22694   1.23440   1.23871   1.24677   1.24809
 Alpha virt. eigenvalues --    1.25317   1.25676   1.27379   1.28014   1.28520
 Alpha virt. eigenvalues --    1.28922   1.29475   1.30234   1.30306   1.31456
 Alpha virt. eigenvalues --    1.31987   1.32890   1.33595   1.34191   1.35523
 Alpha virt. eigenvalues --    1.35712   1.36261   1.38148   1.38418   1.39237
 Alpha virt. eigenvalues --    1.39397   1.40437   1.40883   1.41629   1.42398
 Alpha virt. eigenvalues --    1.42922   1.43186   1.43918   1.44424   1.45146
 Alpha virt. eigenvalues --    1.45889   1.46191   1.46850   1.47312   1.47643
 Alpha virt. eigenvalues --    1.47872   1.48299   1.48987   1.49044   1.49674
 Alpha virt. eigenvalues --    1.49930   1.50618   1.51989   1.52278   1.53169
 Alpha virt. eigenvalues --    1.54818   1.55260   1.55586   1.57961   1.58168
 Alpha virt. eigenvalues --    1.59310   1.59626   1.61110   1.61202   1.62594
 Alpha virt. eigenvalues --    1.63136   1.63504   1.64806   1.66007   1.66885
 Alpha virt. eigenvalues --    1.67030   1.67680   1.67842   1.68043   1.68888
 Alpha virt. eigenvalues --    1.69538   1.69800   1.70250   1.71197   1.71751
 Alpha virt. eigenvalues --    1.72529   1.73649   1.74617   1.76253   1.76865
 Alpha virt. eigenvalues --    1.77139   1.78305   1.78514   1.79059   1.79098
 Alpha virt. eigenvalues --    1.80317   1.80739   1.81421   1.81641   1.82529
 Alpha virt. eigenvalues --    1.82833   1.83227   1.83317   1.83725   1.84233
 Alpha virt. eigenvalues --    1.85090   1.85233   1.86244   1.86829   1.86974
 Alpha virt. eigenvalues --    1.87211   1.87532   1.87798   1.88408   1.88659
 Alpha virt. eigenvalues --    1.89623   1.89930   1.90875   1.91073   1.91739
 Alpha virt. eigenvalues --    1.92441   1.92716   1.92784   1.93083   1.93175
 Alpha virt. eigenvalues --    1.93340   1.93971   1.94414   1.94535   1.94749
 Alpha virt. eigenvalues --    1.95070   1.95632   1.95729   1.96581   1.97136
 Alpha virt. eigenvalues --    1.97623   1.98026   1.98660   1.99384   1.99755
 Alpha virt. eigenvalues --    2.00570   2.00614   2.01783   2.02671   2.03592
 Alpha virt. eigenvalues --    2.04194   2.04475   2.04700   2.05287   2.05709
 Alpha virt. eigenvalues --    2.06420   2.07321   2.07656   2.07985   2.08357
 Alpha virt. eigenvalues --    2.08649   2.09149   2.09253   2.11049   2.11426
 Alpha virt. eigenvalues --    2.11494   2.11959   2.12434   2.13037   2.13318
 Alpha virt. eigenvalues --    2.14313   2.14722   2.15172   2.15656   2.15986
 Alpha virt. eigenvalues --    2.16168   2.16473   2.17508   2.17673   2.18238
 Alpha virt. eigenvalues --    2.18512   2.18752   2.19023   2.19781   2.19957
 Alpha virt. eigenvalues --    2.19980   2.20294   2.21182   2.21588   2.22124
 Alpha virt. eigenvalues --    2.22317   2.22592   2.22848   2.23463   2.23672
 Alpha virt. eigenvalues --    2.24096   2.24199   2.24647   2.25096   2.25443
 Alpha virt. eigenvalues --    2.26369   2.26769   2.27270   2.27740   2.28027
 Alpha virt. eigenvalues --    2.28357   2.28536   2.28842   2.29586   2.29779
 Alpha virt. eigenvalues --    2.30762   2.31487   2.32118   2.32608   2.32867
 Alpha virt. eigenvalues --    2.33303   2.33887   2.34877   2.35552   2.35793
 Alpha virt. eigenvalues --    2.36569   2.37494   2.39181   2.39771   2.40323
 Alpha virt. eigenvalues --    2.40644   2.41760   2.42855   2.45097   2.45893
 Alpha virt. eigenvalues --    2.46735   2.47054   2.47755   2.48855   2.49590
 Alpha virt. eigenvalues --    2.50020   2.50522   2.51222   2.51916   2.52156
 Alpha virt. eigenvalues --    2.53962   2.54170   2.54790   2.56706   2.57220
 Alpha virt. eigenvalues --    2.60275   2.60688   2.61658   2.61827   2.62216
 Alpha virt. eigenvalues --    2.62887   2.64429   2.65219   2.66085   2.66263
 Alpha virt. eigenvalues --    2.66270   2.66739   2.69007   2.69888   2.70994
 Alpha virt. eigenvalues --    2.71676   2.73653   2.76814   2.78817   2.79185
 Alpha virt. eigenvalues --    2.79659   2.79856   2.80457   2.81463   2.81641
 Alpha virt. eigenvalues --    2.81697   2.81877   2.83215   2.83541   2.83820
 Alpha virt. eigenvalues --    2.84355   2.85256   2.87067   2.87461   2.90722
 Alpha virt. eigenvalues --    2.92528   2.93392   2.95455   2.95823   2.96465
 Alpha virt. eigenvalues --    2.97215   2.99293   2.99924   3.03540   3.05682
 Alpha virt. eigenvalues --    3.06504   3.09154   3.12564   3.13628   3.13761
 Alpha virt. eigenvalues --    3.20784   3.24347   3.30777   3.44113  11.45177
          Condensed to atoms (all electrons):
 Mulliken charges:
               1
     1  C    0.300409
     2  C    0.037515
     3  C   -0.177923
     4  C   -0.154654
     5  C   -0.177398
     6  C    0.305763
     7  C    0.044442
     8  C   -0.169299
     9  C   -0.142080
    10  C   -0.183846
    11  H    0.219621
    12  H    0.176116
    13  H    0.167213
    14  H    0.202082
    15  H    0.178758
    16  H    0.160747
    17  N   -0.509302
    18  N   -0.460005
    19  Ir  -0.100948
    20  O   -0.562777
    21  O   -0.524885
    22  O   -0.581060
    23  B    0.414778
    24  B    0.435529
    25  B    0.845574
    26  O   -0.565645
    27  O   -0.502174
    28  C    0.300446
    29  C    0.299813
    30  C    0.336872
    31  C    0.317977
    32  C    0.308413
    33  C    0.302276
    34  O   -0.519856
    35  C   -0.506837
    36  H    0.155142
    37  H    0.154363
    38  H    0.152132
    39  C   -0.508372
    40  H    0.146742
    41  H    0.145404
    42  H    0.195334
    43  C   -0.498107
    44  H    0.152171
    45  H    0.171440
    46  H    0.143448
    47  C   -0.510868
    48  H    0.168855
    49  H    0.178771
    50  H    0.139540
    51  C   -0.510330
    52  H    0.170755
    53  H    0.160420
    54  H    0.146053
    55  C   -0.502469
    56  H    0.145552
    57  H    0.151413
    58  H    0.169543
    59  C   -0.514358
    60  H    0.177087
    61  H    0.177055
    62  H    0.141706
    63  C   -0.510598
    64  H    0.170344
    65  H    0.145029
    66  H    0.162897
    67  C   -0.506482
    68  H    0.159561
    69  H    0.173171
    70  H    0.141082
    71  C   -0.515824
    72  H    0.168624
    73  H    0.161258
    74  H    0.144767
    75  C   -0.525308
    76  H    0.150201
    77  H    0.143408
    78  H    0.228324
    79  C   -0.524217
    80  H    0.202437
    81  H    0.150108
    82  H    0.147095
    83  H    0.075790
    84  C    0.622937
    85  O   -0.509678
    86  C   -0.416917
    87  H    0.194844
    88  H    0.183511
    89  C   -0.392983
    90  H    0.178986
    91  H    0.163990
    92  N   -0.372828
    93  C   -0.380486
    94  H    0.178127
    95  H    0.197415
    96  H    0.197620
    97  C   -0.483200
    98  H    0.166813
    99  H    0.194332
   100  H    0.180638
   101  H    0.173692
   102  H    0.167442
 Sum of Mulliken charges =  -0.00000
 Mulliken charges with hydrogens summed into heavy atoms:
               1
     1  C    0.300409
     2  C    0.257135
     3  C   -0.004231
     4  C    0.021462
     5  C   -0.010185
     6  C    0.305763
     7  C    0.246524
     8  C    0.011339
     9  C    0.036679
    10  C   -0.023098
    17  N   -0.509302
    18  N   -0.460005
    19  Ir  -0.025159
    20  O   -0.562777
    21  O   -0.524885
    22  O   -0.581060
    23  B    0.414778
    24  B    0.435529
    25  B    0.845574
    26  O   -0.565645
    27  O   -0.502174
    28  C    0.300446
    29  C    0.299813
    30  C    0.336872
    31  C    0.317977
    32  C    0.308413
    33  C    0.302276
    34  O   -0.519856
    35  C   -0.045200
    39  C   -0.020892
    43  C   -0.031048
    47  C   -0.023702
    51  C   -0.033101
    55  C   -0.035961
    59  C   -0.018509
    63  C   -0.032327
    67  C   -0.032669
    71  C   -0.041174
    75  C   -0.003375
    79  C   -0.024576
    84  C    0.622937
    85  O   -0.509678
    86  C   -0.038562
    89  C   -0.050007
    92  N   -0.372828
    93  C    0.192676
    97  C    0.045387
 APT charges:
               1
     1  C    0.103050
     2  C   -0.002131
     3  C   -0.014972
     4  C    0.003430
     5  C   -0.115146
     6  C    0.178315
     7  C    0.058032
     8  C   -0.037203
     9  C    0.089377
    10  C   -0.165301
    11  H    0.126025
    12  H    0.030245
    13  H    0.042476
    14  H    0.061571
    15  H    0.028741
    16  H    0.040686
    17  N    0.018092
    18  N   -0.143337
    19  Ir  -0.494755
    20  O   -1.010394
    21  O   -0.922274
    22  O   -0.957282
    23  B    1.269076
    24  B    1.259784
    25  B    1.274585
    26  O   -0.929337
    27  O   -0.998142
    28  C    0.485297
    29  C    0.515827
    30  C    0.482241
    31  C    0.476059
    32  C    0.470851
    33  C    0.494947
    34  O   -0.996392
    35  C   -0.004230
    36  H   -0.004485
    37  H   -0.007360
    38  H   -0.020682
    39  C   -0.058164
    40  H   -0.006818
    41  H   -0.033873
    42  H    0.039861
    43  C   -0.018624
    44  H   -0.012757
    45  H    0.003257
    46  H   -0.032619
    47  C   -0.003294
    48  H   -0.004791
    49  H    0.005192
    50  H   -0.027149
    51  C   -0.004674
    52  H    0.001403
    53  H   -0.006576
    54  H   -0.020015
    55  C   -0.033971
    56  H   -0.022615
    57  H   -0.007217
    58  H    0.004699
    59  C   -0.033581
    60  H    0.004639
    61  H    0.005013
    62  H   -0.029756
    63  C   -0.010717
    64  H    0.001010
    65  H   -0.023930
    66  H    0.003981
    67  C   -0.022248
    68  H   -0.013318
    69  H   -0.007442
    70  H   -0.020325
    71  C   -0.004047
    72  H    0.004185
    73  H   -0.021024
    74  H   -0.012202
    75  C   -0.064948
    76  H    0.005404
    77  H   -0.024439
    78  H    0.064826
    79  C   -0.044018
    80  H    0.036588
    81  H   -0.019243
    82  H   -0.004681
    83  H   -0.093342
    84  C    0.867728
    85  O   -0.845841
    86  C   -0.003057
    87  H   -0.008322
    88  H    0.016947
    89  C   -0.029084
    90  H    0.045888
    91  H   -0.007830
    92  N   -0.589902
    93  C    0.292758
    94  H    0.007710
    95  H   -0.013578
    96  H    0.000944
    97  C    0.076604
    98  H   -0.003966
    99  H    0.011812
   100  H    0.034926
   101  H    0.038916
   102  H   -0.015568
 Sum of APT charges =  -0.00000
 APT charges with hydrogens summed into heavy atoms:
               1
     1  C    0.103050
     2  C    0.123894
     3  C    0.023944
     4  C    0.033674
     5  C   -0.072670
     6  C    0.178315
     7  C    0.119603
     8  C   -0.002277
     9  C    0.118118
    10  C   -0.124615
    17  N    0.018092
    18  N   -0.143337
    19  Ir  -0.588097
    20  O   -1.010394
    21  O   -0.922274
    22  O   -0.957282
    23  B    1.269076
    24  B    1.259784
    25  B    1.274585
    26  O   -0.929337
    27  O   -0.998142
    28  C    0.485297
    29  C    0.515827
    30  C    0.482241
    31  C    0.476059
    32  C    0.470851
    33  C    0.494947
    34  O   -0.996392
    35  C   -0.036757
    39  C   -0.058995
    43  C   -0.060743
    47  C   -0.030041
    51  C   -0.029863
    55  C   -0.059104
    59  C   -0.053685
    63  C   -0.029656
    67  C   -0.063333
    71  C   -0.033088
    75  C   -0.019157
    79  C   -0.031355
    84  C    0.867728
    85  O   -0.845841
    86  C    0.005567
    89  C    0.008974
    92  N   -0.589902
    93  C    0.287834
    97  C    0.068882
 Electronic spatial extent (au):  <R**2>=          23423.7185
 Charge=              0.0000 electrons
 Dipole moment (field-independent basis, Debye):
    X=              3.1272    Y=             -5.8331    Z=              6.3503  Tot=              9.1722
 Quadrupole moment (field-independent basis, Debye-Ang):
   XX=           -296.1068   YY=           -276.4222   ZZ=           -265.4008
   XY=            -15.1872   XZ=             -2.2871   YZ=              1.7253
 Traceless Quadrupole moment (field-independent basis, Debye-Ang):
   XX=            -16.7969   YY=              2.8877   ZZ=             13.9092
   XY=            -15.1872   XZ=             -2.2871   YZ=              1.7253
 Octapole moment (field-independent basis, Debye-Ang**2):
  XXX=            -72.8939  YYY=            -69.0849  ZZZ=             -7.5102  XYY=             32.8669
  XXY=            -54.4389  XXZ=            -23.2301  XZZ=             64.4289  YZZ=            -46.3151
  YYZ=            -12.7690  XYZ=              0.3910
 Hexadecapole moment (field-independent basis, Debye-Ang**3):
 XXXX=         -14648.1855 YYYY=         -10022.5354 ZZZZ=          -6041.1926 XXXY=            -95.5180
 XXXZ=            117.0022 YYYX=           -334.2591 YYYZ=             -0.8248 ZZZX=            105.1011
 ZZZY=             22.8669 XXYY=          -4062.0055 XXZZ=          -3371.7393 YYZZ=          -2646.3150
 XXYZ=             29.8313 YYXZ=            -70.5530 ZZXY=            -36.4881
 N-N= 7.506663635334D+03 E-N=-2.001947898742D+04  KE= 2.075003340512D+03
  Exact polarizability:     446.089     -45.752     476.866     -34.947     -14.355     450.026
 Approx polarizability:     595.969     -82.669     703.602     -63.959     -35.589     732.156
   1 Symmetry operations used in ECPInt.
 ECPInt:  NShTT=   45753 NPrTT=  276657 LenC2=   36547 LenP2D=  114239.
 LDataN:  DoStor=T MaxTD1= 8 Len=  415
 Calling FoFJK, ICntrl=    100127 FMM=F ISym2X=0 I1Cent= 0 IOpClX= 0 NMat=1 NMatS=1 NMatT=0.
 Defaulting to unpruned grid for atomic number  77.
 Defaulting to unpruned grid for atomic number  77.
 Defaulting to unpruned grid for atomic number  77.
 Defaulting to unpruned grid for atomic number  77.
 Defaulting to unpruned grid for atomic number  77.
 Defaulting to unpruned grid for atomic number  77.
 Defaulting to unpruned grid for atomic number  77.
 Defaulting to unpruned grid for atomic number  77.
 Defaulting to unpruned grid for atomic number  77.
 Defaulting to unpruned grid for atomic number  77.
 Defaulting to unpruned grid for atomic number  77.
 Defaulting to unpruned grid for atomic number  77.
 Defaulting to unpruned grid for atomic number  77.
 Defaulting to unpruned grid for atomic number  77.
 Defaulting to unpruned grid for atomic number  77.
 Defaulting to unpruned grid for atomic number  77.
 Full mass-weighted force constant matrix:
 Low frequencies ---   -1.6662   -0.0003    0.0005    0.0005    4.8696    6.1768
 Low frequencies ---   21.5998   29.0824   33.1411
 Diagonal vibrational polarizability:
      136.8736963      92.8481748      65.9037811
 Harmonic frequencies (cm**-1), IR intensities (KM/Mole), Raman scattering
 activities (A**4/AMU), depolarization ratios for plane and unpolarized
 incident light, reduced masses (AMU), force constants (mDyne/A),
 and normal coordinates:
                      1                      2                      3
                      A                      A                      A
 Frequencies --     21.0046                29.0359                33.1010
 Red. masses --      3.2202                 4.1577                 4.5740
 Frc consts  --      0.0008                 0.0021                 0.0030
 IR Inten    --      0.8952                 0.2620                 0.0262
  Atom AN      X      Y      Z        X      Y      Z        X      Y      Z
     1   6     0.05  -0.00  -0.02    -0.04   0.00  -0.02     0.01  -0.02  -0.06
     2   6     0.00  -0.04  -0.02     0.03   0.04  -0.00     0.01  -0.03  -0.04
     3   6     0.05  -0.04  -0.01     0.00   0.04  -0.00    -0.01  -0.05  -0.06
     4   6     0.09  -0.02  -0.01    -0.05   0.02  -0.01    -0.03  -0.06  -0.08
     5   6     0.09   0.00  -0.02    -0.06   0.00  -0.02    -0.01  -0.04  -0.08
     6   6     0.03   0.01  -0.03    -0.05  -0.02  -0.02     0.03   0.01  -0.05
     7   6    -0.03  -0.01  -0.04    -0.03  -0.01  -0.02     0.04   0.03  -0.04
     8   6    -0.00   0.01  -0.05    -0.08  -0.05  -0.02     0.07   0.06  -0.05
     9   6     0.04   0.03  -0.05    -0.11  -0.07  -0.03     0.08   0.05  -0.05
    10   6     0.06   0.03  -0.04    -0.10  -0.05  -0.03     0.05   0.03  -0.05
    11   1    -0.03  -0.05  -0.02     0.06   0.06   0.00     0.02  -0.03  -0.02
    12   1     0.13  -0.02  -0.01    -0.07   0.02  -0.01    -0.05  -0.07  -0.10
    13   1     0.13   0.01  -0.01    -0.10  -0.01  -0.02    -0.02  -0.04  -0.10
    14   1    -0.06  -0.02  -0.04     0.00   0.01  -0.01     0.04   0.04  -0.04
    15   1     0.06   0.05  -0.05    -0.15  -0.10  -0.03     0.10   0.07  -0.05
    16   1     0.10   0.04  -0.04    -0.12  -0.07  -0.03     0.06   0.02  -0.06
    17   7     0.01  -0.02  -0.02     0.01   0.02  -0.01     0.02  -0.02  -0.04
    18   7    -0.01  -0.01  -0.03    -0.02   0.00  -0.01     0.02   0.01  -0.05
    19  77    -0.01  -0.02  -0.02     0.01   0.02  -0.01    -0.00  -0.01  -0.03
    20   8     0.01  -0.03   0.01     0.02   0.02  -0.01     0.01   0.01  -0.03
    21   8    -0.03  -0.00  -0.03     0.07  -0.05  -0.10    -0.00   0.01   0.08
    22   8    -0.01  -0.02   0.00     0.00   0.02   0.01     0.00   0.01   0.01
    23   5    -0.02   0.00  -0.02     0.02  -0.01  -0.02    -0.00  -0.01   0.02
    24   5    -0.00  -0.02   0.00     0.01   0.02  -0.02     0.00  -0.00  -0.03
    25   5    -0.02  -0.00   0.01    -0.00   0.01   0.02    -0.02   0.00   0.03
    26   8    -0.01  -0.01   0.01     0.01  -0.00   0.02    -0.01   0.01   0.06
    27   8     0.00  -0.01   0.02    -0.01   0.01  -0.02     0.01  -0.01  -0.04
    28   6     0.02  -0.01   0.03    -0.01   0.01  -0.02     0.01   0.00  -0.05
    29   6     0.03  -0.02   0.03     0.01   0.01  -0.01     0.01   0.01  -0.04
    30   6     0.00  -0.04  -0.00     0.02   0.00   0.01     0.03   0.01   0.03
    31   6    -0.00  -0.04   0.01     0.02  -0.01   0.02     0.02   0.01   0.06
    32   6    -0.03   0.01  -0.02     0.08  -0.09  -0.03     0.01   0.03   0.13
    33   6    -0.02   0.03  -0.01     0.01  -0.02   0.07    -0.02  -0.00   0.11
    34   8    -0.01   0.02   0.00    -0.01  -0.00   0.08    -0.01  -0.02   0.02
    35   6     0.06  -0.04   0.04     0.02   0.02  -0.01     0.02   0.03  -0.05
    36   1     0.06  -0.05   0.03     0.03   0.02  -0.00     0.02   0.04  -0.04
    37   1     0.07  -0.07   0.02     0.02   0.03  -0.03     0.02   0.03  -0.06
    38   1     0.08  -0.03   0.06     0.01   0.01  -0.01     0.02   0.03  -0.06
    39   6     0.02  -0.00   0.05     0.01  -0.01   0.01     0.01   0.02  -0.03
    40   1     0.02  -0.01   0.04     0.03  -0.01   0.01     0.01   0.04  -0.02
    41   1     0.03   0.01   0.07     0.00  -0.01   0.03     0.02   0.03  -0.04
    42   1    -0.00   0.01   0.04     0.00  -0.00   0.01     0.00   0.00  -0.02
    43   6     0.03  -0.02   0.03    -0.02   0.02  -0.04     0.01   0.01  -0.07
    44   1     0.03  -0.03   0.01    -0.01   0.03  -0.04     0.01   0.01  -0.06
    45   1     0.02  -0.02   0.03    -0.03   0.02  -0.04     0.01  -0.00  -0.07
    46   1     0.04  -0.03   0.04    -0.02   0.02  -0.04     0.01   0.01  -0.08
    47   6     0.02   0.00   0.05    -0.03  -0.00  -0.01     0.01  -0.01  -0.06
    48   1     0.01   0.00   0.05    -0.05  -0.00  -0.02     0.01  -0.02  -0.07
    49   1     0.01   0.01   0.06    -0.03  -0.01   0.01     0.01  -0.01  -0.06
    50   1     0.03  -0.00   0.06    -0.03  -0.00  -0.01     0.01   0.00  -0.07
    51   6    -0.05   0.02  -0.04     0.09  -0.08  -0.10    -0.01   0.03   0.19
    52   1    -0.06   0.03  -0.05     0.04  -0.01  -0.14    -0.05  -0.01   0.20
    53   1    -0.06   0.01  -0.05     0.14  -0.13  -0.16     0.02   0.05   0.20
    54   1    -0.05   0.04  -0.04     0.09  -0.10  -0.04    -0.01   0.03   0.24
    55   6    -0.02  -0.00  -0.01     0.15  -0.18   0.02     0.05   0.08   0.12
    56   1    -0.01   0.00  -0.01     0.16  -0.21   0.07     0.05   0.10   0.15
    57   1    -0.02  -0.01  -0.03     0.19  -0.22  -0.05     0.05   0.09   0.13
    58   1    -0.01  -0.01  -0.00     0.14  -0.19   0.07     0.07   0.08   0.08
    59   6    -0.04   0.06  -0.01    -0.05   0.07   0.03    -0.09  -0.06   0.13
    60   1    -0.04   0.07  -0.00    -0.10   0.12   0.10    -0.10  -0.08   0.11
    61   1    -0.05   0.05  -0.03    -0.06   0.10  -0.05    -0.11  -0.08   0.12
    62   1    -0.05   0.07  -0.02    -0.05   0.06   0.03    -0.10  -0.05   0.20
    63   6    -0.01   0.05   0.01     0.02  -0.07   0.18     0.00   0.03   0.13
    64   1    -0.01   0.06   0.02    -0.04  -0.02   0.24    -0.02  -0.00   0.11
    65   1    -0.02   0.06   0.01     0.03  -0.09   0.18    -0.00   0.04   0.19
    66   1    -0.00   0.03   0.02     0.06  -0.12   0.21     0.05   0.07   0.10
    67   6    -0.00  -0.04   0.04     0.00  -0.02   0.03     0.02   0.02   0.07
    68   1    -0.01  -0.04   0.05    -0.00  -0.03   0.04     0.01   0.01   0.09
    69   1    -0.01  -0.04   0.04    -0.01  -0.02   0.03     0.02   0.01   0.05
    70   1     0.01  -0.06   0.04     0.01  -0.03   0.04     0.05   0.02   0.08
    71   6     0.01  -0.05  -0.00     0.04  -0.02   0.02     0.03   0.02   0.08
    72   1     0.01  -0.04  -0.02     0.05  -0.02   0.02     0.02   0.01   0.08
    73   1     0.01  -0.05   0.01     0.04  -0.04   0.03     0.02   0.01   0.10
    74   1     0.02  -0.06   0.00     0.05  -0.03   0.02     0.05   0.02   0.08
    75   6     0.01  -0.04  -0.02     0.04   0.01   0.00     0.03   0.01   0.02
    76   1     0.00  -0.02  -0.03     0.04   0.02   0.00     0.01   0.01   0.02
    77   1     0.01  -0.05  -0.03     0.05   0.01   0.00     0.04   0.02   0.03
    78   1     0.01  -0.03  -0.03     0.03   0.02   0.00     0.03   0.01   0.00
    79   6     0.01  -0.05   0.00     0.02   0.00   0.02     0.05   0.02   0.02
    80   1     0.02  -0.05  -0.01     0.02   0.01   0.01     0.05   0.02   0.01
    81   1     0.02  -0.06   0.00     0.04  -0.01   0.02     0.06   0.03   0.03
    82   1     0.01  -0.05   0.02     0.01  -0.01   0.02     0.06   0.02   0.02
    83   1    -0.01  -0.01  -0.01     0.01   0.02  -0.01    -0.02  -0.01  -0.03
    84   6    -0.01   0.07   0.06    -0.03   0.02   0.02    -0.05  -0.02   0.02
    85   8    -0.03   0.02   0.05    -0.02   0.01   0.03    -0.02  -0.00   0.03
    86   6    -0.01   0.10   0.09    -0.05   0.02   0.03    -0.06  -0.02   0.02
    87   1     0.00   0.12   0.08    -0.04   0.01   0.03    -0.09  -0.02   0.03
    88   1    -0.01   0.11   0.11    -0.06   0.04   0.03    -0.07  -0.03  -0.01
    89   6    -0.03   0.03  -0.02    -0.00   0.03   0.01    -0.04  -0.01   0.02
    90   1    -0.04  -0.00  -0.01     0.00   0.04   0.00    -0.04   0.00  -0.00
    91   1    -0.06   0.06  -0.06     0.01   0.03   0.00    -0.04  -0.02   0.04
    92   7     0.00   0.09   0.03    -0.01   0.03   0.02    -0.07  -0.03   0.01
    93   6    -0.01   0.15   0.01    -0.01   0.05   0.01    -0.09  -0.04   0.01
    94   1     0.29   0.29   0.16    -0.01   0.06   0.03    -0.19  -0.09  -0.04
    95   1    -0.23   0.39  -0.17    -0.01   0.06  -0.00    -0.04  -0.11   0.07
    96   1    -0.09  -0.17   0.02    -0.01   0.05   0.01    -0.07   0.04  -0.02
    97   6    -0.01   0.07   0.12    -0.07  -0.00   0.03    -0.04  -0.01   0.03
    98   1    -0.02   0.04   0.14    -0.08   0.01   0.04    -0.01  -0.00   0.01
    99   1    -0.02   0.06   0.10    -0.06  -0.02   0.04    -0.03   0.01   0.06
   100   1    -0.02   0.01  -0.05    -0.09  -0.06  -0.03     0.09   0.08  -0.04
   101   1     0.04  -0.05  -0.01     0.02   0.06   0.00    -0.02  -0.06  -0.06
   102   1    -0.00   0.10   0.15    -0.09  -0.00   0.04    -0.05  -0.01   0.03
                      4                      5                      6
                      A                      A                      A
 Frequencies --     34.6321                36.6502                43.2192
 Red. masses --      3.8702                 4.1315                 3.9693
 Frc consts  --      0.0027                 0.0033                 0.0044
 IR Inten    --      0.6767                 0.5569                 0.5646
  Atom AN      X      Y      Z        X      Y      Z        X      Y      Z
     1   6    -0.02  -0.02   0.01     0.01   0.02   0.03     0.05   0.02   0.00
     2   6    -0.03  -0.02   0.00    -0.03   0.01   0.00     0.04   0.02   0.00
     3   6    -0.06  -0.04  -0.01    -0.01   0.02   0.02     0.10   0.04   0.03
     4   6    -0.08  -0.04  -0.01     0.02   0.03   0.04     0.14   0.06   0.04
     5   6    -0.05  -0.04  -0.00     0.03   0.03   0.04     0.12   0.05   0.03
     6   6     0.01  -0.01   0.02     0.04   0.02   0.04     0.01   0.01  -0.01
     7   6     0.06  -0.00   0.03     0.06  -0.00   0.04    -0.06  -0.01  -0.03
     8   6     0.08   0.01   0.05     0.12   0.04   0.07    -0.09  -0.03  -0.05
     9   6     0.07   0.01   0.05     0.14   0.07   0.09    -0.07  -0.03  -0.05
    10   6     0.03  -0.00   0.04     0.10   0.06   0.08    -0.01  -0.00  -0.04
    11   1    -0.01  -0.02   0.01    -0.05   0.00  -0.01     0.02   0.01  -0.01
    12   1    -0.10  -0.05  -0.03     0.03   0.04   0.05     0.20   0.08   0.07
    13   1    -0.06  -0.04  -0.01     0.06   0.04   0.06     0.14   0.06   0.05
    14   1     0.07  -0.01   0.02     0.04  -0.03   0.02    -0.08  -0.01  -0.02
    15   1     0.08   0.02   0.07     0.19   0.11   0.12    -0.09  -0.04  -0.07
    16   1     0.02  -0.00   0.05     0.11   0.09   0.09     0.01  -0.00  -0.04
    17   7    -0.01  -0.02   0.01    -0.02   0.01   0.01     0.01   0.01  -0.01
    18   7     0.03  -0.01   0.02     0.02  -0.01   0.02    -0.01   0.00  -0.01
    19  77     0.02  -0.01   0.01    -0.02  -0.01  -0.01    -0.01   0.00  -0.01
    20   8     0.10   0.02   0.03    -0.04  -0.01  -0.03     0.01   0.02  -0.01
    21   8    -0.01   0.01  -0.02    -0.03  -0.03  -0.08    -0.02   0.01  -0.03
    22   8     0.01  -0.00  -0.01    -0.01  -0.02  -0.01     0.00  -0.01   0.04
    23   5     0.01   0.01  -0.00    -0.02  -0.00  -0.01    -0.01   0.01  -0.02
    24   5     0.01  -0.01   0.01    -0.01  -0.01  -0.02    -0.02  -0.00  -0.02
    25   5     0.01   0.01  -0.02    -0.01  -0.02  -0.01    -0.00  -0.02   0.04
    26   8     0.01   0.02  -0.03    -0.02   0.00  -0.00    -0.01  -0.00   0.05
    27   8    -0.07  -0.05  -0.01     0.03   0.01  -0.02    -0.07  -0.03  -0.04
    28   6    -0.06  -0.03  -0.02     0.03   0.01  -0.02    -0.08  -0.02  -0.06
    29   6     0.06  -0.01   0.05    -0.02   0.01  -0.03    -0.02   0.00  -0.02
    30   6    -0.00   0.00  -0.02    -0.01  -0.01  -0.01     0.01  -0.02   0.04
    31   6     0.00   0.02  -0.03    -0.01   0.01  -0.00     0.01  -0.01   0.06
    32   6    -0.02   0.03  -0.02    -0.02  -0.02  -0.04    -0.02   0.03  -0.02
    33   6     0.00   0.06  -0.00    -0.04   0.06   0.05    -0.02   0.04  -0.02
    34   8     0.02   0.04   0.01    -0.03   0.04   0.06    -0.00   0.03  -0.02
    35   6     0.13   0.05   0.01    -0.03  -0.01  -0.02    -0.00   0.05  -0.05
    36   1     0.22   0.05   0.07    -0.07  -0.00  -0.04     0.04   0.06  -0.02
    37   1     0.14   0.11  -0.07    -0.03  -0.04   0.00    -0.00   0.09  -0.08
    38   1     0.09   0.02   0.02     0.00   0.01  -0.03    -0.03   0.03  -0.06
    39   6     0.07  -0.07   0.17    -0.02   0.05  -0.07    -0.01  -0.04   0.03
    40   1     0.15  -0.05   0.22    -0.06   0.04  -0.09     0.03  -0.02   0.06
    41   1     0.04  -0.09   0.19    -0.00   0.07  -0.06    -0.03  -0.06   0.03
    42   1     0.02  -0.11   0.20    -0.02   0.07  -0.08    -0.03  -0.07   0.05
    43   6    -0.07   0.03  -0.13     0.04  -0.02   0.02    -0.09   0.02  -0.12
    44   1    -0.02   0.08  -0.16     0.02  -0.04   0.03    -0.07   0.04  -0.12
    45   1    -0.15   0.01  -0.17     0.07  -0.02   0.04    -0.12  -0.00  -0.14
    46   1    -0.06   0.04  -0.15     0.05  -0.02   0.02    -0.09   0.03  -0.14
    47   6    -0.14  -0.11   0.03     0.07   0.04  -0.03    -0.12  -0.07  -0.05
    48   1    -0.23  -0.12  -0.03     0.10   0.04  -0.02    -0.16  -0.08  -0.08
    49   1    -0.14  -0.16   0.11     0.06   0.07  -0.06    -0.11  -0.10  -0.01
    50   1    -0.12  -0.09   0.02     0.07   0.05  -0.04    -0.12  -0.06  -0.07
    51   6    -0.04   0.04  -0.05    -0.05   0.00  -0.11    -0.04   0.04  -0.02
    52   1    -0.05   0.05  -0.06    -0.09   0.06  -0.15    -0.05   0.04  -0.02
    53   1    -0.05   0.02  -0.07    -0.04  -0.06  -0.17    -0.05   0.03  -0.02
    54   1    -0.04   0.06  -0.06    -0.05   0.02  -0.08    -0.05   0.06  -0.01
    55   6    -0.01   0.00  -0.02     0.04  -0.11   0.00    -0.00   0.04  -0.02
    56   1    -0.01   0.01  -0.02     0.05  -0.11   0.04    -0.00   0.05  -0.01
    57   1    -0.02  -0.02  -0.03     0.06  -0.15  -0.06    -0.00   0.03  -0.02
    58   1     0.00  -0.00   0.00     0.05  -0.12   0.05     0.01   0.03  -0.02
    59   6    -0.01   0.09  -0.02    -0.11   0.15   0.01    -0.03   0.04  -0.02
    60   1     0.00   0.11   0.00    -0.13   0.20   0.07    -0.03   0.05  -0.01
    61   1    -0.02   0.08  -0.03    -0.13   0.15  -0.06    -0.04   0.03  -0.02
    62   1    -0.02   0.10  -0.03    -0.13   0.17   0.01    -0.04   0.05  -0.01
    63   6     0.01   0.07   0.01    -0.02   0.06   0.15    -0.00   0.06  -0.01
    64   1     0.02   0.09   0.02    -0.04   0.11   0.20     0.00   0.06  -0.00
    65   1     0.00   0.09  -0.00    -0.02   0.06   0.14    -0.01   0.07  -0.00
    66   1     0.02   0.05   0.02     0.03   0.00   0.17     0.01   0.06  -0.01
    67   6     0.01   0.02  -0.03     0.01   0.02  -0.00     0.01  -0.01   0.07
    68   1     0.02   0.04  -0.04     0.00   0.03  -0.00     0.00  -0.01   0.08
    69   1     0.02   0.02  -0.02     0.02   0.01  -0.01     0.01  -0.01   0.05
    70   1     0.00   0.02  -0.03     0.01   0.03  -0.00     0.03  -0.00   0.07
    71   6    -0.02   0.02  -0.04    -0.03   0.02   0.00     0.01  -0.01   0.06
    72   1    -0.02   0.02  -0.04    -0.04   0.01   0.00     0.00  -0.01   0.05
    73   1    -0.01   0.04  -0.04    -0.03   0.03   0.00     0.00  -0.00   0.07
    74   1    -0.02   0.02  -0.04    -0.03   0.02   0.00     0.02  -0.01   0.06
    75   6    -0.01  -0.00  -0.02    -0.02  -0.02  -0.01     0.01  -0.02   0.03
    76   1    -0.01   0.00  -0.03    -0.03  -0.02  -0.01    -0.00  -0.01   0.03
    77   1    -0.03  -0.01  -0.03    -0.02  -0.01  -0.01     0.01  -0.02   0.03
[...]
 00000255,-0.00000111,0.00000631,-0.00000513,-0.00000297,-0.00000366,0.
 00000214,0.00000837,-0.00000247,-0.00000066,-0.00000238,-0.00000242,-0
 .00000062,-0.00000005,0.00000129,0.00000046,0.00000175,0.00000163,0.00
 000115,-0.00000041,-0.00000337,-0.00000076,0.00000114,-0.00000222,-0.0
 0000052,-0.00000037,0.00000073,0.00000057,-0.00000050,0.00000114,0.000
 00056,0.00000058,-0.00000244,-0.00000128,0.00000102,-0.00000003,-0.000
 00221,-0.00000222,-0.00000119,0.00000219,0.00000119,-0.00000224,0.0000
 0102,0.00000138,0.00000508,-0.00000041,-0.00000144,-0.00000252,0.00000
 435,-0.00000012,0.00000058,0.00000101,0.00000110,-0.00000107,-0.000000
 61,0.00000100,-0.00000010,0.00018483,-0.00004301,0.00014966,-0.0000444
 5,0.00014790,0.00011457,0.00002658,-0.00002985,-0.00013903,0.00001705,
 -0.00001972,0.00000957,0.00000115,0.00001492,-0.00000413,0.00002895,0.
 00001113,-0.00001375,0.00000994,-0.00004507,-0.00003966,0.00000467,0.0
 0001398,0.00001779,-0.00000779,0.00000013,0.00000319,0.00006069,-0.000
 11364,-0.00007168,-0.00017639,0.00016850,0.00015230,-0.00004622,0.0000
 7511,-0.00005794,0.00008502,-0.00000291,-0.00003138,0.00020995,-0.0000
 9578,0.00006344,-0.00000715,0.00000494,-0.00002329,0.00000095,-0.00000
 681,0.00002204,0.00000599,0.00000515,0.00000606,0.00000678,0.00001187,
 -0.00000319,-0.04673915,0.07170440,-0.00086587,0.00136735,0.00033031,0
 .01080101,-0.01040045,-0.01393845,0.12145427,-0.05731552,-0.24949184,-
 0.00011831,0.00120907,0.00142060,0.00198905,0.00053977,0.00262859,-0.0
 0047138,-0.00028526,-0.00012381,-0.00003131,0.00002920,0.00006908,0.00
 003123,-0.00005767,0.00000710,0.00001006,0.00001072,-0.00006234,-0.000
 00649,0.00001001,0.00002821,-0.00130078,-0.00065070,-0.00004371,-0.001
 30697,-0.00076173,-0.00019463,0.00004814,0.00019707,0.00006716,-0.0000
 0333,0.00000107,-0.00000284,0.00000259,-0.00000634,-0.00000582,-0.0000
 0446,0.00002353,0.00001085,0.00286157,0.00446807,-0.00179699,0.0000387
 0,0.00005974,-0.00013729,-0.00016599,-0.00062376,0.00036136,-0.0002132
 0,0.00018667,0.00025594,-0.00036154,-0.00015596,0.00008457,0.00004468,
 0.00003671,0.00003039,0.00045799,0.00017298,-0.00004461,0.00026055,-0.
 00030186,-0.00025151,-0.00005322,-0.00005077,-0.00011022,0.00001596,0.
 00001221,0.00003286,-0.00009901,0.00015054,0.00010210,0.00001862,-0.00
 003066,-0.00007294,0.00007780,-0.00002828,-0.00003578,-0.00001905,-0.0
 0002497,0.00001824,-0.00001275,-0.00000288,-0.00001451,0.00031720,-0.0
 0007811,-0.00020447,0.00004146,0.00012620,-0.00000279,-0.00024997,-0.0
 0005043,0.00004540,0.00001054,0.00002040,-0.00003419,-0.00002069,0.000
 00240,0.00003206,-0.00000004,-0.00000043,-0.00000303,-0.00000033,-0.00
 000701,0.00001950,0.00000826,0.00003799,-0.00003777,-0.00002232,-0.000
 00994,0.00002495,-0.00001213,-0.00001106,0.00000863,0.00000778,-0.0000
 0467,0.00000166,-0.00000729,0.00000370,0.00001782,0.00000251,-0.000001
 48,-0.00000704,-0.00000232,-0.00000786,0.00000506,0.00000098,0.0000113
 7,0.00000327,-0.00000302,0.00000761,0.00001291,-0.00000250,-0.00000574
 ,0.00000270,0.00000019,-0.00000073,-0.00000663,-0.00000540,0.00001049,
 0.00000010,-0.00004548,0.00000999,0.00005075,0.00000823,0.00002471,0.0
 0002530,0.00001231,-0.00002315,-0.00000995,-0.00001186,-0.00001048,-0.
 00000458,-0.00006029,0.00012697,0.00010504,0.00001885,0.00000360,0.000
 04301,-0.00005849,-0.00019245,-0.00013004,-0.00004540,0.00007903,-0.00
 008828,-0.00000543,-0.00004319,0.00002008,0.00000694,-0.00000018,0.000
 01702,-0.00000124,0.00001204,0.00000238,-0.00000736,-0.00000362,-0.000
 00592,-0.00001133,-0.00002077,-0.00000523,0.00000291,-0.00000105,0.000
 01480,-0.00001364,-0.00000032,-0.00000340,-0.00000455,0.00002329,0.000
 00461,-0.00000034,-0.00000104,0.00000395,0.00000386,0.00000055,0.00000
 163,-0.00000148,0.00000319,-0.00000219,-0.00000173,0.00000033,0.000000
 25,0.00000408,-0.00000016,0.00000444,-0.00000174,0.00000149,-0.0000004
 7,0.00000418,0.00000080,0.00000053,-0.00000176,-0.00000111,0.00000023,
 -0.00000677,0.00000813,-0.00000361,0.00000654,0.00000390,0.00000514,0.
 00000355,0.00000404,-0.00000218,0.00000181,-0.00001933,-0.00000330,-0.
 00000411,0.00000498,-0.00001405,-0.00000051,-0.00000411,0.00001924,0.0
 0001041,0.00000509,-0.00000149,-0.00000115,0.00000155,0.00000226,0.000
 01013,0.00023961,-0.00021116,0.00008063,-0.00016796,-0.00019428,0.0000
 1012,0.00005411,0.00018400,0.00000725,0.00000061,0.00000040,0.00001379
 ,0.00000783,0.00000303,0.00004507,-0.00001650,-0.00002919,-0.00002333,
 0.00005114,0.00002951,0.00000796,-0.00000984,-0.00003081,0.00001076,0.
 00000555,0.00000217,-0.00008546,0.00009290,0.00006435,0.00008253,-0.00
 004309,-0.00004826,0.00006279,0.00005953,-0.00000534,-0.00003282,-0.00
 000340,0.00001522,0.00011286,0.00013533,-0.00000246,-0.00000039,-0.000
 00387,-0.00001481,-0.00000652,0.00000487,0.00001707,0.00000313,0.00000
 631,0.00000500,0.00001375,0.00000507,-0.00000343,-0.13324744,0.0617672
 5,0.26117437,0.00005187,0.00005516,-0.00011095,-0.00000739,-0.00003338
 ,0.00006105,-0.00003095,0.00008280,0.00002925,0.00006869,-0.00004042,-
 0.00001696,0.00010179,0.00011738,0.00007815,0.00002574,0.00000308,0.00
 003485,0.00001542,-0.00000835,-0.00002544,-0.00001864,0.00002710,-0.00
 000076,-0.00000174,-0.00003051,0.00004955,-0.00006235,0.00006418,-0.00
 006655,0.00000728,0.00001170,0.00000588,-0.00006528,-0.00003185,0.0000
 3384,-0.00002884,-0.00010023,-0.00007925,0.00000167,0.00000048,0.00000
 085,0.00000290,0.00000095,-0.00000287,0.00000352,0.00000133,-0.0000346
 7,0.00002536,-0.00015502,-0.00007094,0.00000358,-0.00005818,0.00006469
 ,0.00002295,0.00000755,0.00001120,-0.00001751,-0.00002992,-0.00002314,
 -0.00000416,-0.00002063,0.00001401,-0.00001401,-0.00000037,-0.00012943
 ,0.00000683,0.00002713,-0.00001943,-0.00000683,0.00004214,0.00003024,-
 0.00007540,-0.00009927,0.00032565,0.00013110,0.00003161,-0.00011476,0.
 00000336,-0.00002380,-0.00000871,0.00000633,0.00001151,0.00000783,0.00
 000568,-0.00000014,0.00000349,-0.00003017,-0.00002922,0.00002814,-0.00
 002576,0.00003619,0.00006609,-0.00000069,0.00000076,-0.00000132,0.0000
 0138,0.00000669,-0.00000233,-0.00000311,-0.00001376,0.00000333,0.00000
 813,0.00000340,0.00000017,0.00000086,-0.00000060,0.00000051,-0.0000031
 8,-0.00000611,-0.00000119,-0.00000241,0.00000001,-0.00000161,-0.000000
 74,-0.00000028,-0.00000265,-0.00000074,-0.00000036,0.00000251,-0.00000
 072,-0.00000046,0.00000016,-0.00000107,0.00000116,-0.00000099,0.000007
 23,-0.00000762,0.00000632,-0.00000176,-0.00000027,-0.00000154,-0.00000
 210,0.00000143,-0.00000149,-0.00000252,0.00000056,-0.00000152,-0.00000
 222,-0.00000405,-0.00000197,0.00000049,0.00000008,0.00000060,-0.000002
 54,0.00000035,-0.00000118,0.00000091,-0.00000050,0.00000019,-0.0000011
 5,0.00000162,-0.00000212,-0.00000056,0.00000035,-0.00000053,0.00000009
 ,-0.00000179,0.00000250,0.00000082,-0.00000073,-0.00000002,-0.00000213
 ,0.00000316,-0.00000234,0.00000084,0.00000036,0.00000087,0.00000081,-0
 .00000300,0.00000214,-0.00000106,0.00000061,-0.00000083,-0.00000011,-0
 .00000147,0.00000076,0.00000042,-0.00000079,0.00000107,0.00000061,0.00
 000039,-0.00000087,-0.00000073,-0.00000008,-0.00000053,-0.00000046,-0.
 00000106,0.00000152,0.00000080,-0.00000062,0.00000132,-0.00000085,-0.0
 0000037,-0.00000051,0.00000034,0.00000122,-0.00000092,-0.00000717,-0.0
 0001032,-0.00000611,0.00002824,0.00002265,-0.00001016,-0.00002919,-0.0
 0000407,-0.00001618,0.00001046,-0.00001297,0.00000779,0.00000397,-0.00
 000787,-0.00001173,-0.00000060,-0.00000699,0.00000214,0.00000350,0.000
 00374,0.00000060,0.00000303,0.00000287,-0.00000317,0.00001269,0.000009
 65,0.00000026,-0.00000212,-0.00000652,-0.00000067,-0.00000125,0.000002
 22,-0.00000448,0.00000226,-0.00000047,0.00000081,0.00000571,0.00000568
 ,-0.00000213,0.00000019,-0.00000034,-0.00000137,-0.00000123,-0.0000003
 1,-0.00000471,-0.00000054,-0.00000415,-0.00000132,-0.00000593,-0.00000
 636,0.00000898,-0.00190554,0.00193208,0.00346722,0.00055314,-0.0001389
 8,-0.00003094,-0.00481823,0.01382273,-0.01276628,0.00065210,-0.0006156
 6,0.00003374,0.00037901,-0.00051661,-0.00071191,-0.00014816,0.00010042
 ,0.00017079,0.00000405,0.00008886,-0.00003608,-0.00003306,0.00008209,-
 0.00004993,-0.00005023,0.00092593,-0.00106350,0.00009854,-0.00002272,-
 0.00028062,0.00002584,-0.00003094,0.00001300,-0.00000912,0.00001094,0.
 00003801,-0.00003055,0.00001475,0.00002932,-0.05880228,0.03967622,-0.0
 3506815,-0.00360841,0.01207572,-0.00853024,0.00809200,-0.02036103,0.01
 789483,0.00000145,-0.00000145,0.00000158,-0.00000054,0.00000068,-0.000
 00532,0.05949003,0.00006232,-0.00004588,-0.00002700,-0.00002639,-0.000
 01783,0.00004268,0.00000659,0.00004767,0.00001268,0.00003019,-0.000064
 09,0.00002426,0.00005631,0.00003182,0.00002495,0.00001849,-0.00001714,
 -0.00002802,0.00001851,-0.00001134,-0.00003912,-0.00001622,0.00002662,
 -0.00000472,-0.00001678,-0.00000875,0.00003978,-0.00002419,0.00002647,
 -0.00001975,-0.00001684,-0.00000103,-0.00000331,0.00002174,0.00001744,
 -0.00000767,0.00003816,-0.00000807,0.00002278,-0.00000103,-0.00000445,
 -0.00000279,-0.00000023,0.00000302,0.00000130,0.00000255,0.00001414,0.
 ,0.00006402,-0.00000672,0.00000914,-0.00000531,-0.00003173,0.00004424,
 -0.00004283,-0.00000545,-0.00001254,0.00005668,0.00000606,0.00003796,0
 .00004365,0.00003146,-0.00000655,0.00009289,-0.00001447,0.00032002,-0.
 00005814,-0.00002735,0.00001113,-0.00001015,-0.00002980,-0.00005716,-0
 .00000870,0.00043593,-0.00067055,-0.00013515,-0.00012679,0.00027088,0.
 00001400,0.00000270,0.00001342,-0.00001650,-0.00000447,-0.00000455,-0.
 00002841,0.00002477,0.00000173,0.00005143,0.00005384,-0.00007304,0.000
 02498,-0.00000305,-0.00017786,-0.00002069,-0.00000415,0.00000153,-0.00
 001791,-0.00001664,-0.00000321,0.00004767,0.00001592,0.00000528,-0.000
 01277,-0.00000731,-0.00000340,-0.00000288,0.00000313,-0.00000021,0.000
 00470,0.00001257,0.00000292,0.00000635,-0.00000390,0.00000315,0.000003
 67,-0.00000066,0.00000245,-0.00000054,0.00000178,-0.00000251,0.0000043
 9,-0.00000277,-0.00000017,-0.00000001,-0.00000027,0.00000129,-0.000014
 04,0.00001256,-0.00001117,0.00000414,0.00000103,0.00000522,0.00000180,
 -0.00000007,0.00000287,0.00000630,-0.00000402,-0.00000033,0.00000378,0
 .00000582,0.00000476,-0.00000191,-0.00000050,0.00000066,0.00000445,0.0
 0000064,0.00000185,0.00000016,-0.00000115,-0.00000227,0.00000177,0.000
 00072,0.00000006,-0.00000067,0.00000005,0.00000120,-0.00000179,0.00000
 053,-0.00000133,0.00000306,0.00000071,0.00000022,0.00000221,-0.0000020
 2,-0.00000040,0.00000418,-0.00000002,-0.00000062,-0.00000313,-0.000000
 92,0.00000028,-0.00000132,0.00000202,0.00000080,0.00000148,0.00000205,
 0.00000120,-0.00000094,-0.00000086,-0.00000031,-0.00000101,-0.00000135
 ,-0.00000103,0.00000311,0.00000252,0.00000094,0.00000226,0.00000079,-0
 .00000056,-0.00000078,-0.00000144,-0.00000009,0.00000288,0.00000232,-0
 .00000006,-0.00000198,-0.00000093,0.00000123,-0.00000723,0.00001218,0.
 00002716,0.00001395,0.00000472,-0.00001285,-0.00000615,-0.00001976,-0.
 00001638,-0.00000632,-0.00000147,0.00002406,0.00000132,0.00000242,0.00
 002028,0.00000272,0.00000156,-0.00000408,-0.00000341,0.00000154,-0.000
 00540,-0.00000547,-0.00000644,0.00001339,-0.00000687,-0.00001568,0.000
 00633,-0.00000152,0.00001429,0.00000007,-0.00000012,-0.00000885,0.0000
 1144,-0.00000210,-0.00000030,0.00000013,0.00000605,-0.00001046,0.00000
 743,0.00000583,0.00000080,0.00000454,-0.00000257,0.00000059,0.00000945
 ,-0.00000582,0.00000378,-0.00000169,0.00000340,0.00000294,0.00000253,0
 .00212994,-0.00110074,-0.00368082,0.00027402,-0.00007191,-0.00001075,0
 .00379838,-0.01626169,0.01461681,-0.00070702,0.00033527,0.00022405,-0.
 00022374,0.00088075,0.00013785,0.00012021,-0.00020024,-0.00027973,0.00
 000582,-0.00010595,0.00003692,0.00005831,-0.00011641,0.00007090,0.0003
 3800,-0.00110823,0.00122073,-0.00016637,0.00001244,0.00041955,-0.00001
 646,0.00006451,0.00000820,0.00001499,-0.00004238,-0.00006238,0.0000488
 0,-0.00002571,-0.00005406,0.03975173,-0.19478233,0.12794033,-0.0024096
 5,0.01090371,-0.00850952,0.00364659,-0.00864009,0.00670439,-0.00000151
 ,-0.00000060,-0.00000039,-0.00000259,-0.00000770,0.00000128,-0.0468667
 7,0.20997573,0.00007063,-0.00002712,-0.00010079,-0.00001441,-0.0000335
 2,0.00006598,-0.00002203,0.00006739,0.00000623,0.00001174,-0.00006967,
 -0.00009510,-0.00007395,0.00020364,-0.00000501,0.00005038,0.00001950,0
 .00007564,0.00003742,-0.00001976,-0.00003645,-0.00003378,0.00004412,-0
 .00000719,-0.00005512,-0.00000945,0.00012706,-0.00010036,0.00006457,-0
 .00018153,0.00000257,0.00000073,0.00000544,-0.00001932,0.00000057,0.00
 002734,-0.00003635,-0.00004247,-0.00006157,0.00000476,0.00000017,-0.00
 000057,0.00000774,-0.00000231,-0.00001906,-0.00003266,0.00005068,-0.00
 004661,0.00004590,-0.00015912,-0.00002627,0.00001376,-0.00010718,0.000
 08272,-0.00002598,0.00002506,-0.00000584,-0.00002679,0.00002617,0.0000
 2023,-0.00005289,-0.00003816,0.00001162,-0.00007022,0.00004386,-0.0000
 9896,0.00009695,0.00003337,-0.00000482,0.00004118,-0.00004556,-0.00002
 446,0.00014375,-0.00048899,0.00032455,0.00001981,0.00010047,-0.0000626
 7,-0.00002399,0.00003270,0.00000607,0.00000853,-0.00001359,-0.00000960
 ,0.00001437,-0.00001364,-0.00000093,-0.00001401,-0.00002559,0.00004185
 ,0.00002451,-0.00003400,0.00003774,0.00002672,0.00000502,-0.00000248,0
 .00001825,0.00001759,0.00000042,-0.00005947,-0.00001391,-0.00000387,0.
 00000031,0.00000190,0.00000090,0.00000090,-0.00000144,0.00000104,-0.00
 000077,-0.00000285,-0.00000068,-0.00000156,0.00000258,0.00000001,-0.00
 000216,0.00000117,-0.00000056,0.00000030,-0.00000123,0.00000112,-0.000
 00265,0.00000208,0.00000023,0.00000170,-0.00000040,-0.00000028,0.00000
 017,0.00000067,0.00000146,-0.00000102,-0.00000009,-0.00000265,0.000001
 48,-0.00000298,0.00000040,-0.00000123,0.00000237,0.00000242,-0.0000007
 9,0.00000116,0.00000011,0.00000096,-0.00000034,-0.00000068,-0.00000070
 ,-0.00000091,-0.00000039,-0.00000138,0.00000210,0.00000138,-0.00000332
 ,-0.00000030,-0.00000088,0.00000077,0.00000076,-0.00000168,0.00000173,
 -0.00000058,0.00000280,-0.00000302,-0.00000142,-0.00000001,-0.00000418
 ,-0.00000017,0.00000037,-0.00000425,0.00000039,0.00000120,0.00000304,0
 .00000161,0.00000034,0.00000120,-0.00000265,-0.00000111,-0.00000131,-0
 .00000295,-0.00000078,0.00000093,0.00000037,0.00000032,0.00000114,0.00
 000220,0.00000110,-0.00000368,-0.00000243,-0.00000106,-0.00000198,-0.0
 0000134,-0.00000021,0.00000041,0.00000110,-0.00000023,-0.00000316,-0.0
 0000153,0.00000038,0.00000121,0.00000050,-0.00000036,-0.00003255,-0.00
 002999,-0.00000919,-0.00002100,-0.00001206,0.00001020,0.00002950,0.000
 00687,0.00004844,0.00000435,0.00002167,-0.00002367,-0.00001188,0.00001
 310,0.00000276,-0.00000020,0.00001055,-0.00000011,0.00000026,-0.000004
 51,0.00000276,0.00000112,0.00000057,-0.00000622,-0.00000739,0.00000268
 ,-0.00000742,0.00000420,-0.00000152,0.00000168,0.00000111,0.00000716,-
 0.00000379,-0.00000016,0.00000084,-0.00000164,-0.00000300,-0.00000422,
 -0.00000425,-0.00000455,0.00000068,-0.00000224,0.00000277,0.00000336,-
 0.00000339,0.00000294,0.00000724,0.00000756,0.00000512,0.00000355,-0.0
 0000033,0.00293139,-0.00274210,-0.00349386,-0.00087071,0.00153706,0.00
 037185,0.00412377,-0.01406905,0.01072504,-0.00065821,0.00055730,0.0006
 3958,-0.00050454,0.00073838,0.00054160,-0.00000656,-0.00001642,-0.0001
 1229,-0.00000113,-0.00002257,0.00004313,0.00000760,-0.00003105,0.00005
 888,0.00001255,-0.00059603,0.00108518,-0.00007318,0.00003526,0.0001319
 2,0.00000707,0.00003261,-0.00001930,0.00000174,0.00000081,-0.00000005,
 -0.00000164,0.00000974,-0.00000818,-0.03573358,0.12946594,-0.15932868,
 -0.00280177,0.01906166,-0.01399281,-0.00316415,0.00504562,-0.00612189,
 0.00000300,0.00000216,-0.00000145,0.00000347,-0.00000191,0.00000041,0.
 03679752,-0.13862232,0.16942665\\0.00000597,-0.00001240,-0.00000184,-0
 .00000205,-0.00000654,0.00000457,0.00000326,-0.00000385,-0.00001357,-0
 .00000149,-0.00000714,0.00000372,0.00000041,-0.00000233,-0.00000415,-0
 .00000200,0.00000311,-0.00000054,-0.00000632,-0.00000120,0.00000293,0.
 00000174,0.00000173,-0.00000536,0.00000483,-0.00000376,0.00000005,0.00
 000123,0.00000350,-0.00000273,-0.00000150,0.00000001,0.00000029,-0.000
 00196,-0.00000156,-0.00000523,-0.00000352,0.00000218,-0.00000268,0.000
 00901,0.00000025,0.00000179,-0.00000352,0.00000463,-0.00000318,-0.0000
 0441,-0.00000158,-0.00000335,-0.00000635,0.00001690,-0.00000516,0.0000
 0151,0.00000096,-0.00001211,0.00000498,-0.00000945,0.00000157,0.000001
 86,-0.00000474,0.00000004,0.00000246,-0.00000657,-0.00000151,0.0000035
 2,0.00000253,0.00001137,-0.00000094,0.00001032,-0.00000771,0.00000362,
 0.00000708,0.00000486,-0.00000554,0.00000192,0.00000868,-0.00000324,-0
 .00000025,-0.00000075,0.00000125,-0.00000499,-0.00000106,-0.00000437,-
 0.00000065,0.00000314,0.00000349,0.00000383,0.00000420,0.00000458,0.00
 000372,-0.00000022,-0.00000455,-0.00000412,0.00001077,-0.00000132,0.00
 000555,-0.00000759,-0.00000706,0.00000052,-0.00000202,0.00000726,-0.00
 000353,0.00000025,-0.00000319,-0.00000214,-0.00000302,-0.00000130,-0.0
 0000180,0.00000174,0.00000211,-0.00000144,0.00000299,-0.00000015,-0.00
 000085,0.00000317,0.00000018,0.00000492,0.00000176,-0.00000025,-0.0000
 0116,-0.00000047,-0.00000083,0.00000178,0.00000047,-0.00000024,-0.0000
 0083,-0.00000388,0.00000649,-0.00000541,-0.00000198,0.00000304,0.00000
 311,0.00000901,-0.00000199,-0.00000069,0.00000480,-0.00000045,0.000003
 14,0.00000801,-0.00000153,-0.00000009,0.00000052,0.00000069,0.00000076
 ,0.00000565,0.00000268,0.00000203,0.00000325,0.00000069,0.00000047,0.0
 0000275,-0.00000178,0.00000233,-0.00000124,0.00000109,0.00000130,-0.00
 000698,-0.00000083,-0.00000033,-0.00000475,-0.00000149,0.00000095,-0.0
 0000509,-0.00000311,0.00000302,-0.00000386,-0.00000012,-0.00000039,-0.
 00000382,0.00000021,-0.00000361,-0.00000071,-0.00000140,0.00000044,-0.
 00000229,0.00000176,0.00000423,-0.00000305,0.00000147,0.00000322,-0.00
 000230,0.00000094,0.00000282,-0.00000352,-0.00000015,0.00000189,-0.000
 00349,0.00000026,-0.00000655,-0.00000014,0.00000021,0.00000427,-0.0000
 0267,0.00000328,0.00000442,-0.00000394,-0.00000027,0.00000230,-0.00000
 186,0.00000335,0.00000556,-0.00000891,0.00000178,0.,0.00000386,-0.0000
 0363,-0.00000452,0.00000045,0.00000132,-0.00000020,0.00000431,0.000001
 02,0.00000377,0.00000299,0.00000177,0.00000017,0.00000448,0.00000188,0
 .00000043,0.00000433,0.00000176,0.00000151,0.00000456,0.00000083,-0.00
 000089,-0.00000356,0.00000199,0.00000131,0.00000618,0.00000235,0.00000
 072,0.00000491,0.00000184,0.00000188,0.00000348,0.00001099,0.00000766,
 0.00000153,0.00000115,0.00000155,-0.00000102,0.00000112,0.00000088,0.0
 0000417,-0.00000909,0.00000436,0.,-0.00000566,0.00000080,-0.00000161,0
 .00000778,0.00001074,0.00001504,0.00000284,-0.00001524,-0.00000896,-0.
 00001065,-0.00000106,-0.00000564,-0.00000148,-0.00000087,0.00000092,0.
 00000102,-0.00000644,-0.00000003,-0.00000251,0.00001299,-0.00000315,-0
 .00000375,-0.00000528,0.00000052,0.00000145,-0.00000214,0.00000409,0.0
 0000330,-0.00001027,-0.00000106,-0.00000538,-0.00000737,0.00000546,-0.
 00000146,-0.00000138,-0.00000256,-0.00000025,-0.00000234,0.00000170,-0
 .00000206,-0.00000316,0.00000088,0.00000501,-0.00000973,-0.00000027,0.
 00000267,-0.00000086,0.00000004,-0.00000983,-0.00000535,0.00000223,0.0
 0000062,0.00000366,-0.00000071,-0.00000501,-0.00000015,0.00000456,-0.0
 0000392,0.00000306,-0.00000577\\\@
 The archive entry for this job was punched.


 MATERIAL COPIED FROM ONE SCHOLARLY BOOK WITHOUT CREDIT COMPRISES PLAGIARISM.
 MATERIAL COPIED FROM TWO SCHOLARLY BOOKS COMPRISES AN ESSAY.
 MATERIAL COPIED FROM THREE SCHOLARLY BOOKS COMPRISES A DISSERTATION.
 MATERIAL COPIED FROM FOUR SCHOLARLY BOOKS COMPRISES A FIFTH SCHOLARLY BOOK.

                               -- C&EN, 25 FEB 1980
 Job cpu time:       1 days 16 hours  2 minutes 56.9 seconds.
 Elapsed time:       0 days  2 hours 32 minutes 49.0 seconds.
 File lengths (MBytes):  RWF=   6947 Int=      0 D2E=      0 Chk=     43 Scr=      1
 Normal termination of Gaussian 16 at Sun Dec  8 00:25:18 2024.
