/mnt/lustre/scratch/nvme/SLURM/9663511/usccqdma.Q6KzyCVmc4
OMP_STACKSIZE=0m
GAUSS_PDEF=16
GAUSS_MDEF=65536MB
GAUSS_RDEF=SCF=Direct
 Entering Gaussian System, Link 0=g16.exe
 Initial command:
 /opt/cesga/2020/software/Core/g16/c1/l1.exe "/mnt/lustre/scratch/nvme/SLURM/9663511/usccqdma.Q6KzyCVmc4/Gau-2522328.inp" -scrdir="/mnt/lustre/scratch/nvme/SLURM/9663511/usccqdma.Q6KzyCVmc4/"
 Default is to use a total of  16 processors:
                               16 via shared-memory
                                1 via Linda
 Entering Link 1 = /opt/cesga/2020/software/Core/g16/c1/l1.exe PID=   2522357.
  
 Copyright (c) 1988-2019, Gaussian, Inc.  All Rights Reserved.
  
 This is part of the Gaussian(R) 16 program.  It is based on
 the Gaussian(R) 09 system (copyright 2009, Gaussian, Inc.),
 the Gaussian(R) 03 system (copyright 2003, Gaussian, Inc.),
 the Gaussian(R) 98 system (copyright 1998, Gaussian, Inc.),
 the Gaussian(R) 94 system (copyright 1995, Gaussian, Inc.),
 the Gaussian 92(TM) system (copyright 1992, Gaussian, Inc.),
 the Gaussian 90(TM) system (copyright 1990, Gaussian, Inc.),
 the Gaussian 88(TM) system (copyright 1988, Gaussian, Inc.),
 the Gaussian 86(TM) system (copyright 1986, Carnegie Mellon
 University), and the Gaussian 82(TM) system (copyright 1983,
 Carnegie Mellon University). Gaussian is a federally registered
 trademark of Gaussian, Inc.
  
 This software contains proprietary and confidential information,
 including trade secrets, belonging to Gaussian, Inc.
  
 This software is provided under written license and may be
 used, copied, transmitted, or stored only in accord with that
 written license.
  
 The following legend is applicable only to US Government
 contracts under FAR:
  
                    RESTRICTED RIGHTS LEGEND
  
 Use, reproduction and disclosure by the US Government is
 subject to restrictions as set forth in subparagraphs (a)
 and (c) of the Commercial Computer Software - Restricted
 Rights clause in FAR 52.227-19.
  
 Gaussian, Inc.
 340 Quinnipiac St., Bldg. 40, Wallingford CT 06492
  
  
 ---------------------------------------------------------------
 Warning -- This program may not be used in any manner that
 competes with the business of Gaussian, Inc. or will provide
 assistance to any competitor of Gaussian, Inc.  The licensee
 of this program is prohibited from giving any competitor of
 Gaussian, Inc. access to this program.  By using this program,
 the user acknowledges that Gaussian, Inc. is engaged in the
 business of creating and licensing software in the field of
 computational chemistry and represents and warrants to the
 licensee that it is not a competitor of Gaussian, Inc. and that
 it will not use this program in any manner prohibited above.
 ---------------------------------------------------------------
  

 Cite this work as:
 Gaussian 16, Revision C.01,
 M. J. Frisch, G. W. Trucks, H. B. Schlegel, G. E. Scuseria, 
 M. A. Robb, J. R. Cheeseman, G. Scalmani, V. Barone, 
 G. A. Petersson, H. Nakatsuji, X. Li, M. Caricato, A. V. Marenich, 
 J. Bloino, B. G. Janesko, R. Gomperts, B. Mennucci, H. P. Hratchian, 
 J. V. Ortiz, A. F. Izmaylov, J. L. Sonnenberg, D. Williams-Young, 
 F. Ding, F. Lipparini, F. Egidi, J. Goings, B. Peng, A. Petrone, 
 T. Henderson, D. Ranasinghe, V. G. Zakrzewski, J. Gao, N. Rega, 
 G. Zheng, W. Liang, M. Hada, M. Ehara, K. Toyota, R. Fukuda, 
 J. Hasegawa, M. Ishida, T. Nakajima, Y. Honda, O. Kitao, H. Nakai, 
 T. Vreven, K. Throssell, J. A. Montgomery, Jr., J. E. Peralta, 
 F. Ogliaro, M. J. Bearpark, J. J. Heyd, E. N. Brothers, K. N. Kudin, 
 V. N. Staroverov, T. A. Keith, R. Kobayashi, J. Normand, 
 K. Raghavachari, A. P. Rendell, J. C. Burant, S. S. Iyengar, 
 J. Tomasi, M. Cossi, J. M. Millam, M. Klene, C. Adamo, R. Cammi, 
 J. W. Ochterski, R. L. Martin, K. Morokuma, O. Farkas, 
 J. B. Foresman, and D. J. Fox, Gaussian, Inc., Wallingford CT, 2019.
 
 ******************************************
 Gaussian 16:  ES64L-G16RevC.01  3-Jul-2019
                 7-Dec-2024 
 ******************************************
 Default route: SCF=Direct
 ----------------------------------------------------
 # m06/genecp scf=tight int=ultrafine 5d freq=noraman
 ----------------------------------------------------
 1/10=4,30=1,38=1/1,3;
 2/12=2,17=6,18=5,40=1/2;
 3/5=7,8=1,11=2,16=1,17=8,25=1,30=1,71=2,74=-54,75=-5,140=1/1,2,3;
 4//1;
 5/5=2,32=2,38=5,98=1/2;
 8/6=4,10=90,11=11/1;
 11/6=1,8=1,9=11,15=111,16=1/1,2,10;
 10/6=1/2;
 6/7=2,8=2,9=2,10=2,28=1/1;
 7/8=1,10=1,25=1/1,2,3,16;
 1/10=4,30=1/3;
 99//99;
 ------
 OPT-TS
 ------
 Symbolic Z-matrix:
 Charge =  0 Multiplicity = 1
 C                    -1.63481   0.02772  -2.16787 
 C                    -2.56703   1.48151  -0.63655 
 C                    -3.67791   1.68805  -1.43489 
 C                    -3.73683   1.06152  -2.6781 
 C                    -2.70402   0.22301  -3.04742 
 C                    -0.55861  -0.94278  -2.41745 
 C                     1.29936  -2.01722  -1.5503 
 C                     1.40581  -2.82967  -2.66542 
 C                     0.49877  -2.67282  -3.70803 
 C                    -0.498    -1.72422  -3.57321 
 H                    -2.47      1.96981   0.3293 
 H                    -4.59396   1.21567  -3.33128 
 H                    -2.74898  -0.30354  -3.99581 
 H                     1.97812  -2.11703  -0.70506 
 H                     0.56302  -3.29612  -4.59795 
 H                    -1.23517  -1.60212  -4.36092 
 N                    -1.563     0.68496  -1.00081 
 N                     0.35313  -1.08042  -1.4334 
 Ir                    0.18753   0.20954   0.3455 
 O                     2.54759   0.89894  -1.51943 
 O                     1.51998  -0.61288   3.00276 
 O                    -0.29085   3.0668   -0.47671 
 B                     1.52448  -0.66504   1.62603 
 B                     2.10825   0.95852  -0.20378 
 B                     0.55245   2.30805   0.32983 
 O                     1.20587   3.1245    1.23513 
 O                     3.17171   1.21077   0.64931 
 C                     4.31236   1.5593   -0.14536 
 C                     3.98854   0.87479  -1.50399 
 C                    -0.12807   4.45284  -0.14501 
 C                     0.50899   4.37708   1.27313 
 C                     2.61596  -1.40681   3.48913 
 C                     2.8628   -2.39741   2.31338 
 O                     2.44134  -1.62086   1.1828 
 C                     4.50185   1.60566  -2.7278 
 H                     4.07294   2.61033  -2.81017 
 H                     5.59763   1.69169  -2.69976 
 H                     4.2301    1.04792  -3.63312 
 C                     4.42475  -0.58405  -1.54888 
 H                     4.08911  -1.12906  -0.65502 
 H                     3.9851   -1.06326  -2.43418 
 H                     5.51645  -0.67658  -1.6265 
 C                     4.3489    3.07904  -0.22722 
 H                     5.24699   3.44172  -0.74519 
 H                     3.46235   3.46584  -0.74604 
 H                     4.33908   3.48334   0.79266 
 C                     5.56922   1.05742   0.53744 
 H                     6.4534    1.23465  -0.09177 
 H                     5.71493   1.59324   1.48451 
 H                     5.5096   -0.01481   0.75949 
 C                     3.78033  -0.45628   3.723 
 H                     4.05723   0.05086   2.79031 
 H                     3.46428   0.31438   4.43684 
 H                     4.65753  -0.97341   4.13521 
 C                     2.20486  -2.06421   4.79074 
 H                     2.98934  -2.74676   5.14859 
 H                     2.04763  -1.29618   5.55838 
 H                     1.27129  -2.62796   4.68302 
 C                     4.30347  -2.81452   2.09893 
 H                     4.36631  -3.46635   1.21596 
 H                     4.95326  -1.94848   1.9258 
 H                     4.68801  -3.37325   2.96409 
 C                     1.96876  -3.63028   2.35347 
 H                     0.91521  -3.35553   2.49754 
 H                     2.04991  -4.1525    1.38995 
 H                     2.26151  -4.32865   3.14879 
 C                     1.4951    5.48265   1.59114 
 H                     2.33419   5.49162   0.88638 
 H                     1.00293   6.46563   1.56498 
 H                     1.90325   5.33303   2.59864 
 C                    -0.52567   4.26915   2.387 
 H                    -1.25412   3.47272   2.17937 
 H                    -0.01037   4.00829   3.31942 
 H                    -1.07015   5.21065   2.53908 
 C                    -1.48541   5.1285   -0.20813 
 H                    -1.41865   6.17643   0.11773 
 H                    -1.85468   5.12073  -1.2423 
 H                    -2.23052   4.62004   0.41576 
 C                     0.7931    5.05731  -1.19401 
 H                     0.92605   6.13809  -1.0519 
 H                     1.77967   4.57657  -1.17718 
 H                     0.35724   4.88895  -2.18654 
 H                    -0.12416   0.95178   1.73944 
 C                    -3.37443  -1.37925   0.29423 
 O                    -3.00325  -1.97325  -0.72002 
 C                    -4.85185  -1.07461   0.48488 
 H                    -5.02906  -0.03528   0.79774 
 H                    -5.29605  -1.18565  -0.51387 
 C                    -1.08977  -1.37806   1.16652 
 H                    -0.76095  -1.63393   2.18352 
 H                    -1.01627  -2.27424   0.53887 
 N                    -2.50254  -1.02043   1.27649 
 C                    -2.85053  -0.2925    2.47549 
 H                    -2.85396  -0.9513    3.35801 
 H                    -2.09519   0.48894   2.64958 
 H                    -3.83027   0.18703   2.39452 
 C                    -5.52864  -2.0437    1.45504 
 H                    -5.14919  -1.88601   2.47827 
 H                    -6.60489  -1.81063   1.49345 
 C                    -5.3417   -3.50477   1.07254 
 H                    -5.65379  -3.65351   0.02465 
 H                    -4.2701   -3.76287   1.09637 
 C                    -6.11155  -4.45258   1.97961 
 H                    -5.80043  -4.28811   3.02449 
 H                    -7.18436  -4.20098   1.94356 
 C                    -5.90965  -5.91107   1.60447 
 H                    -6.23876  -6.10112   0.57331 
 H                    -4.84823  -6.18907   1.66367 
 H                    -6.46916  -6.58699   2.26312 
 C                    -4.78292   2.5915   -0.99333 
 F                    -4.77695   3.74136  -1.67701 
 F                    -5.97757   2.02239  -1.19375 
 F                    -4.68987   2.89461   0.30636 
 C                     2.52038  -3.82177  -2.7684 
 F                     3.47454  -3.38248  -3.60195 
 F                     3.09636  -4.05473  -1.5864 
 F                     2.08845  -4.98924  -3.25644 
 

 GradGradGradGradGradGradGradGradGradGradGradGradGradGradGradGradGradGrad
 Berny optimization.
 Initialization pass.
 Trust Radius=3.00D-01 FncErr=1.00D-07 GrdErr=1.00D-07 EigMax=2.50D+02 EigMin=1.00D-04
 Number of steps in this run=      2 maximum allowed number of steps=      2.
 GradGradGradGradGradGradGradGradGradGradGradGradGradGradGradGradGradGrad

 Stoichiometry    C38H59B3F6IrN3O7
 Framework group  C1[X(C38H59B3F6IrN3O7)]
 Deg. of freedom   345
 Full point group                 C1      NOp   1
 Largest Abelian subgroup         C1      NOp   1
 Largest concise Abelian subgroup C1      NOp   1
                         Standard orientation:                         
 ---------------------------------------------------------------------
 Center     Atomic      Atomic             Coordinates (Angstroms)
 Number     Number       Type             X           Y           Z
 ---------------------------------------------------------------------
      1          6           0       -1.634811    0.027720   -2.167871
      2          6           0       -2.567031    1.481510   -0.636551
      3          6           0       -3.677911    1.688050   -1.434891
      4          6           0       -3.736831    1.061520   -2.678101
      5          6           0       -2.704021    0.223010   -3.047421
      6          6           0       -0.558610   -0.942780   -2.417451
      7          6           0        1.299360   -2.017220   -1.550301
      8          6           0        1.405810   -2.829670   -2.665421
      9          6           0        0.498770   -2.672820   -3.708031
     10          6           0       -0.498000   -1.724220   -3.573211
     11          1           0       -2.470001    1.969810    0.329299
     12          1           0       -4.593961    1.215670   -3.331281
     13          1           0       -2.748981   -0.303540   -3.995811
     14          1           0        1.978120   -2.117029   -0.705061
     15          1           0        0.563020   -3.296120   -4.597951
     16          1           0       -1.235170   -1.602120   -4.360921
     17          7           0       -1.563001    0.684960   -1.000811
     18          7           0        0.353130   -1.080420   -1.433401
     19         77           0        0.187529    0.209540    0.345499
     20          8           0        2.547589    0.898941   -1.519431
     21          8           0        1.519979   -0.612880    3.002759
     22          8           0       -0.290851    3.066800   -0.476711
     23          5           0        1.524479   -0.665040    1.626029
     24          5           0        2.108249    0.958521   -0.203781
     25          5           0        0.552449    2.308050    0.329829
     26          8           0        1.205869    3.124500    1.235129
     27          8           0        3.171709    1.210771    0.649309
     28          6           0        4.312359    1.559301   -0.145361
     29          6           0        3.988539    0.874791   -1.503991
     30          6           0       -0.128071    4.452840   -0.145011
     31          6           0        0.508989    4.377080    1.273129
     32          6           0        2.615960   -1.406809    3.489129
     33          6           0        2.862800   -2.397409    2.313379
     34          8           0        2.441340   -1.620859    1.182799
     35          6           0        4.501849    1.605661   -2.727801
     36          1           0        4.072939    2.610331   -2.810171
     37          1           0        5.597629    1.691691   -2.699761
     38          1           0        4.230099    1.047921   -3.633121
     39          6           0        4.424749   -0.584049   -1.548881
     40          1           0        4.089110   -1.129059   -0.655021
     41          1           0        3.985100   -1.063259   -2.434181
     42          1           0        5.516449   -0.676579   -1.626501
     43          6           0        4.348899    3.079041   -0.227221
     44          1           0        5.246989    3.441721   -0.745191
     45          1           0        3.462349    3.465841   -0.746041
     46          1           0        4.339079    3.483341    0.792659
     47          6           0        5.569219    1.057421    0.537439
     48          1           0        6.453399    1.234651   -0.091771
     49          1           0        5.714929    1.593241    1.484509
     50          1           0        5.509599   -0.014809    0.759489
     51          6           0        3.780329   -0.456279    3.722999
     52          1           0        4.057229    0.050861    2.790309
     53          1           0        3.464279    0.314381    4.436839
     54          1           0        4.657530   -0.973409    4.135209
     55          6           0        2.204860   -2.064209    4.790739
     56          1           0        2.989340   -2.746759    5.148589
     57          1           0        2.047630   -1.296179    5.558379
     58          1           0        1.271290   -2.627960    4.683019
     59          6           0        4.303470   -2.814519    2.098929
     60          1           0        4.366310   -3.466349    1.215959
     61          1           0        4.953260   -1.948479    1.925799
     62          1           0        4.688010   -3.373249    2.964089
     63          6           0        1.968760   -3.630279    2.353469
     64          1           0        0.915210   -3.355530    2.497539
     65          1           0        2.049910   -4.152499    1.389949
     66          1           0        2.261510   -4.328649    3.148789
     67          6           0        1.495099    5.482650    1.591139
     68          1           0        2.334189    5.491621    0.886379
     69          1           0        1.002929    6.465630    1.564979
     70          1           0        1.903249    5.333031    2.598639
     71          6           0       -0.525671    4.269150    2.386999
     72          1           0       -1.254121    3.472720    2.179369
     73          1           0       -0.010371    4.008290    3.319419
     74          1           0       -1.070151    5.210650    2.539079
     75          6           0       -1.485411    5.128500   -0.208131
     76          1           0       -1.418651    6.176430    0.117729
     77          1           0       -1.854681    5.120730   -1.242301
     78          1           0       -2.230521    4.620040    0.415759
     79          6           0        0.793099    5.057310   -1.194011
     80          1           0        0.926049    6.138090   -1.051901
     81          1           0        1.779669    4.576571   -1.177181
     82          1           0        0.357239    4.888950   -2.186541
     83          1           0       -0.124161    0.951780    1.739439
     84          6           0       -3.374430   -1.379250    0.294229
     85          8           0       -3.003250   -1.973250   -0.720021
     86          6           0       -4.851850   -1.074610    0.484879
     87          1           0       -5.029061   -0.035280    0.797739
     88          1           0       -5.296050   -1.185650   -0.513871
     89          6           0       -1.089770   -1.378060    1.166519
     90          1           0       -0.760950   -1.633930    2.183519
     91          1           0       -1.016270   -2.274240    0.538869
     92          7           0       -2.502540   -1.020430    1.276489
     93          6           0       -2.850531   -0.292500    2.475489
     94          1           0       -2.853960   -0.951300    3.358009
     95          1           0       -2.095191    0.488940    2.649579
     96          1           0       -3.830271    0.187030    2.394519
     97          6           0       -5.528640   -2.043700    1.455039
     98          1           0       -5.149190   -1.886010    2.478269
     99          1           0       -6.604890   -1.810630    1.493449
    100          6           0       -5.341700   -3.504770    1.072539
    101          1           0       -5.653790   -3.653510    0.024649
    102          1           0       -4.270100   -3.762870    1.096369
    103          6           0       -6.111550   -4.452580    1.979609
    104          1           0       -5.800430   -4.288110    3.024489
    105          1           0       -7.184360   -4.200981    1.943559
    106          6           0       -5.909650   -5.911070    1.604469
    107          1           0       -6.238760   -6.101120    0.573309
    108          1           0       -4.848230   -6.189070    1.663669
    109          1           0       -6.469160   -6.586990    2.263119
    110          6           0       -4.782921    2.591500   -0.993331
    111          9           0       -4.776951    3.741360   -1.677011
    112          9           0       -5.977571    2.022390   -1.193751
    113          9           0       -4.689871    2.894610    0.306359
    114          6           0        2.520380   -3.821769   -2.768401
    115          9           0        3.474540   -3.382479   -3.601951
    116          9           0        3.096360   -4.054729   -1.586401
    117          9           0        2.088450   -4.989239   -3.256441
 ---------------------------------------------------------------------
 Rotational constants (GHZ):           0.0505005           0.0404946           0.0324968
 General basis read from cards:  (5D, 7F)
 ======================================================================================================
                                       Pseudopotential Parameters
 ======================================================================================================
  Center     Atomic      Valence      Angular      Power
  Number     Number     Electrons     Momentum     of R      Exponent        Coefficient   SO-Coeffient
 ======================================================================================================
    1          6
                                   No pseudopotential on this center.
    2          6
                                   No pseudopotential on this center.
    3          6
                                   No pseudopotential on this center.
    4          6
                                   No pseudopotential on this center.
    5          6
                                   No pseudopotential on this center.
    6          6
                                   No pseudopotential on this center.
    7          6
                                   No pseudopotential on this center.
    8          6
                                   No pseudopotential on this center.
    9          6
                                   No pseudopotential on this center.
   10          6
                                   No pseudopotential on this center.
   11          1
                                   No pseudopotential on this center.
   12          1
                                   No pseudopotential on this center.
   13          1
                                   No pseudopotential on this center.
   14          1
                                   No pseudopotential on this center.
   15          1
                                   No pseudopotential on this center.
   16          1
                                   No pseudopotential on this center.
   17          7
                                   No pseudopotential on this center.
   18          7
                                   No pseudopotential on this center.
   19         77           17
                                      G and up 
                                                     1      823.5880147       -0.15780140    0.00000000
                                                     2      364.6613336    -1517.52704460    0.00000000
                                                     2       55.7082801     -316.53065290    0.00000000
                                                     2       12.0464544      -91.88809410    0.00000000
                                                     2        3.5120610       -9.22417730    0.00000000
                                      S - G
                                                     0      188.0490770        3.15780140    0.00000000
                                                     1      340.4194712       26.83225770    0.00000000
                                                     2      128.2373673      800.42500070    0.00000000
                                                     2       33.8644961      369.40506830    0.00000000
                                                     2        4.7560005      242.41718990    0.00000000
                                                     2        3.9649974     -118.21732820    0.00000000
                                      P - G
                                                     0      289.7291139        2.15780140    0.00000000
                                                     1       87.4633789       61.96786100    0.00000000
                                                     2       30.4363766      269.05819860    0.00000000
                                                     2        4.0553412      231.16547930    0.00000000
                                                     2        3.5525341     -133.69526670    0.00000000
                                      D - G
                                                     0      136.4017106        3.15780140    0.00000000
                                                     1       95.0776925       45.93498030    0.00000000
                                                     2       49.2258410      359.03446680    0.00000000
                                                     2       15.0874145      176.47401190    0.00000000
                                                     2        4.0405764       54.51552860    0.00000000
                                      F - G
                                                     0      127.3507908        3.95461970    0.00000000
                                                     1       66.2364374       52.97736550    0.00000000
                                                     2       34.4299229      274.86433830    0.00000000
                                                     2       10.1995721      137.20473380    0.00000000
                                                     2        2.5409702       14.86333050    0.00000000
   20          8
                                   No pseudopotential on this center.
   21          8
                                   No pseudopotential on this center.
   22          8
                                   No pseudopotential on this center.
   23          5
                                   No pseudopotential on this center.
   24          5
                                   No pseudopotential on this center.
   25          5
                                   No pseudopotential on this center.
   26          8
                                   No pseudopotential on this center.
   27          8
                                   No pseudopotential on this center.
   28          6
                                   No pseudopotential on this center.
   29          6
                                   No pseudopotential on this center.
   30          6
                                   No pseudopotential on this center.
   31          6
                                   No pseudopotential on this center.
   32          6
                                   No pseudopotential on this center.
   33          6
                                   No pseudopotential on this center.
   34          8
                                   No pseudopotential on this center.
   35          6
                                   No pseudopotential on this center.
   36          1
                                   No pseudopotential on this center.
   37          1
                                   No pseudopotential on this center.
   38          1
                                   No pseudopotential on this center.
   39          6
                                   No pseudopotential on this center.
   40          1
                                   No pseudopotential on this center.
   41          1
                                   No pseudopotential on this center.
   42          1
                                   No pseudopotential on this center.
   43          6
                                   No pseudopotential on this center.
   44          1
                                   No pseudopotential on this center.
   45          1
                                   No pseudopotential on this center.
   46          1
                                   No pseudopotential on this center.
   47          6
                                   No pseudopotential on this center.
   48          1
                                   No pseudopotential on this center.
   49          1
                                   No pseudopotential on this center.
   50          1
                                   No pseudopotential on this center.
   51          6
                                   No pseudopotential on this center.
   52          1
                                   No pseudopotential on this center.
   53          1
                                   No pseudopotential on this center.
   54          1
                                   No pseudopotential on this center.
   55          6
                                   No pseudopotential on this center.
   56          1
                                   No pseudopotential on this center.
   57          1
                                   No pseudopotential on this center.
   58          1
                                   No pseudopotential on this center.
   59          6
                                   No pseudopotential on this center.
   60          1
                                   No pseudopotential on this center.
   61          1
                                   No pseudopotential on this center.
   62          1
                                   No pseudopotential on this center.
   63          6
                                   No pseudopotential on this center.
   64          1
                                   No pseudopotential on this center.
   65          1
                                   No pseudopotential on this center.
   66          1
                                   No pseudopotential on this center.
   67          6
                                   No pseudopotential on this center.
   68          1
                                   No pseudopotential on this center.
   69          1
                                   No pseudopotential on this center.
   70          1
                                   No pseudopotential on this center.
   71          6
                                   No pseudopotential on this center.
   72          1
                                   No pseudopotential on this center.
   73          1
                                   No pseudopotential on this center.
   74          1
                                   No pseudopotential on this center.
   75          6
                                   No pseudopotential on this center.
   76          1
                                   No pseudopotential on this center.
   77          1
                                   No pseudopotential on this center.
   78          1
                                   No pseudopotential on this center.
   79          6
                                   No pseudopotential on this center.
   80          1
                                   No pseudopotential on this center.
   81          1
                                   No pseudopotential on this center.
   82          1
                                   No pseudopotential on this center.
   83          1
                                   No pseudopotential on this center.
   84          6
                                   No pseudopotential on this center.
   85          8
                                   No pseudopotential on this center.
   86          6
                                   No pseudopotential on this center.
   87          1
                                   No pseudopotential on this center.
   88          1
                                   No pseudopotential on this center.
   89          6
                                   No pseudopotential on this center.
   90          1
                                   No pseudopotential on this center.
   91          1
                                   No pseudopotential on this center.
   92          7
                                   No pseudopotential on this center.
   93          6
                                   No pseudopotential on this center.
   94          1
                                   No pseudopotential on this center.
   95          1
                                   No pseudopotential on this center.
   96          1
                                   No pseudopotential on this center.
   97          6
                                   No pseudopotential on this center.
   98          1
                                   No pseudopotential on this center.
   99          1
                                   No pseudopotential on this center.
  100          6
                                   No pseudopotential on this center.
  101          1
                                   No pseudopotential on this center.
  102          1
                                   No pseudopotential on this center.
  103          6
                                   No pseudopotential on this center.
  104          1
                                   No pseudopotential on this center.
  105          1
                                   No pseudopotential on this center.
  106          6
                                   No pseudopotential on this center.
  107          1
                                   No pseudopotential on this center.
  108          1
                                   No pseudopotential on this center.
  109          1
                                   No pseudopotential on this center.
  110          6
                                   No pseudopotential on this center.
  111          9
                                   No pseudopotential on this center.
  112          9
                                   No pseudopotential on this center.
  113          9
                                   No pseudopotential on this center.
  114          6
                                   No pseudopotential on this center.
  115          9
                                   No pseudopotential on this center.
  116          9
                                   No pseudopotential on this center.
  117          9
                                   No pseudopotential on this center.
 ======================================================================================================
 There are   997 symmetry adapted cartesian basis functions of A   symmetry.
 There are   938 symmetry adapted basis functions of A   symmetry.
   938 basis functions,  1875 primitive gaussians,   997 cartesian basis functions
   225 alpha electrons      225 beta electrons
       nuclear repulsion energy     10486.8648996069 Hartrees.
 NAtoms=  117 NActive=  117 NUniq=  117 SFac= 1.00D+00 NAtFMM=   60 NAOKFM=T Big=T
 Integral buffers will be    131072 words long.
 Raffenetti 2 integral format.
 Two-electron integral symmetry is turned on.
 One-electron integrals computed using PRISM.
   1 Symmetry operations used in ECPInt.
 ECPInt:  NShTT=   62835 NPrTT=  387974 LenC2=   44975 LenP2D=  137107.
 LDataN:  DoStor=T MaxTD1= 6 Len=  172
 NBasis=   938 RedAO= T EigKep=  4.40D-04  NBF=   938
 NBsUse=   938 1.00D-06 EigRej= -1.00D+00 NBFU=   938
 Defaulting to unpruned grid for atomic number  77.
 ExpMin= 2.90D-02 ExpMax= 7.00D+03 ExpMxC= 1.05D+03 IAcc=3 IRadAn=         5 AccDes= 0.00D+00
 Harris functional with IExCor= 1009 and IRadAn=       5 diagonalized for initial guess.
 HarFok:  IExCor= 1009 AccDes= 0.00D+00 IRadAn=         5 IDoV= 1 UseB2=F ITyADJ=14
 ICtDFT=  3500011 ScaDFX=  1.000000  1.000000  1.000000  1.000000
 Defaulting to unpruned grid for atomic number  77.
 FoFCou: FMM=F IPFlag=           0 FMFlag=      100000 FMFlg1=        2001
         NFxFlg=           0 DoJE=T BraDBF=F KetDBF=T FulRan=T
         wScrn=  0.000000 ICntrl=       500 IOpCl=  0 I1Cent=   200000004 NGrid=           0
         NMat0=    1 NMatS0=      1 NMatT0=    0 NMatD0=    1 NMtDS0=    0 NMtDT0=    0
 Petite list used in FoFCou.
 Requested convergence on RMS density matrix=1.00D-08 within 128 cycles.
 Requested convergence on MAX density matrix=1.00D-06.
 Requested convergence on             energy=1.00D-06.
 No special actions if energy rises.
 Defaulting to unpruned grid for atomic number  77.
 Defaulting to unpruned grid for atomic number  77.
 Defaulting to unpruned grid for atomic number  77.
 Defaulting to unpruned grid for atomic number  77.
 Defaulting to unpruned grid for atomic number  77.
 Defaulting to unpruned grid for atomic number  77.
 Defaulting to unpruned grid for atomic number  77.
 Defaulting to unpruned grid for atomic number  77.
 Defaulting to unpruned grid for atomic number  77.
 Defaulting to unpruned grid for atomic number  77.
 Defaulting to unpruned grid for atomic number  77.
 Defaulting to unpruned grid for atomic number  77.
 Defaulting to unpruned grid for atomic number  77.
 Defaulting to unpruned grid for atomic number  77.
 Defaulting to unpruned grid for atomic number  77.
 Defaulting to unpruned grid for atomic number  77.
 SCF Done:  E(RM06) =  -2951.38981561     A.U. after   16 cycles
            NFock= 16  Conv=0.41D-08     -V/T= 2.0310
 DoSCS=F DFT=T ScalE2(SS,OS)=  1.000000  1.000000
 Range of M.O.s used for correlation:     1   938
 NBasis=   938 NAE=   225 NBE=   225 NFC=     0 NFV=     0
 NROrb=    938 NOA=   225 NOB=   225 NVA=   713 NVB=   713
   1 Symmetry operations used in ECPInt.
 ECPInt:  NShTT=   62835 NPrTT=  387974 LenC2=   44975 LenP2D=  137107.
 LDataN:  DoStor=T MaxTD1= 7 Len=  274
 Number of processors reduced to   6 by ecpmxn.
 Symmetrizing basis deriv contribution to polar:
 IMax=3 JMax=2 DiffMx= 0.00D+00
 G2DrvN: will do   118 centers at a time, making    1 passes.
 Calling FoFCou, ICntrl=  3107 FMM=T I1Cent=   0 AccDes= 0.00D+00.
 Defaulting to unpruned grid for atomic number  77.
 Defaulting to unpruned grid for atomic number  77.
 Defaulting to unpruned grid for atomic number  77.
 Defaulting to unpruned grid for atomic number  77.
 Defaulting to unpruned grid for atomic number  77.
 Defaulting to unpruned grid for atomic number  77.
 Defaulting to unpruned grid for atomic number  77.
 Defaulting to unpruned grid for atomic number  77.
 Defaulting to unpruned grid for atomic number  77.
 Defaulting to unpruned grid for atomic number  77.
 Defaulting to unpruned grid for atomic number  77.
 Defaulting to unpruned grid for atomic number  77.
 Defaulting to unpruned grid for atomic number  77.
 Defaulting to unpruned grid for atomic number  77.
 Defaulting to unpruned grid for atomic number  77.
 Defaulting to unpruned grid for atomic number  77.
 End of G2Drv F.D. properties file   721 does not exist.
 End of G2Drv F.D. properties file   722 does not exist.
 End of G2Drv F.D. properties file   788 does not exist.
          IDoAtm=11111111111111111111111111111111111111111111111111
          IDoAtm=11111111111111111111111111111111111111111111111111
          IDoAtm=11111111111111111
          Differentiating once with respect to electric field.
                with respect to dipole field.
          Differentiating once with respect to nuclear coordinates.
 Defaulting to unpruned grid for atomic number  77.
 CalDSu exits because no D1Ps are significant.
 Defaulting to unpruned grid for atomic number  77.
 Defaulting to unpruned grid for atomic number  77.
 Defaulting to unpruned grid for atomic number  77.
 Defaulting to unpruned grid for atomic number  77.
 Defaulting to unpruned grid for atomic number  77.
 Defaulting to unpruned grid for atomic number  77.
 Defaulting to unpruned grid for atomic number  77.
 Defaulting to unpruned grid for atomic number  77.
 Defaulting to unpruned grid for atomic number  77.
 Defaulting to unpruned grid for atomic number  77.
 Defaulting to unpruned grid for atomic number  77.
 Defaulting to unpruned grid for atomic number  77.
 Defaulting to unpruned grid for atomic number  77.
 Defaulting to unpruned grid for atomic number  77.
 Defaulting to unpruned grid for atomic number  77.
 Defaulting to unpruned grid for atomic number  77.
          There are   354 degrees of freedom in the 1st order CPHF.  IDoFFX=6 NUNeed=     3.
    351 vectors produced by pass  0 Test12= 1.60D-13 1.00D-09 XBig12= 4.80D+02 6.77D+00.
 AX will form    72 AO Fock derivatives at one time.
    351 vectors produced by pass  1 Test12= 1.60D-13 1.00D-09 XBig12= 8.68D+01 1.13D+00.
    351 vectors produced by pass  2 Test12= 1.60D-13 1.00D-09 XBig12= 9.51D-01 8.23D-02.
    351 vectors produced by pass  3 Test12= 1.60D-13 1.00D-09 XBig12= 6.09D-03 6.60D-03.
    351 vectors produced by pass  4 Test12= 1.60D-13 1.00D-09 XBig12= 2.50D-05 4.07D-04.
    309 vectors produced by pass  5 Test12= 1.60D-13 1.00D-09 XBig12= 5.12D-08 1.90D-05.
     81 vectors produced by pass  6 Test12= 1.60D-13 1.00D-09 XBig12= 7.63D-11 5.48D-07.
      3 vectors produced by pass  7 Test12= 1.60D-13 1.00D-09 XBig12= 1.01D-13 1.89D-08.
 InvSVY:  IOpt=1 It=  1 EMax= 3.55D-14
 Solved reduced A of dimension  2148 with   354 vectors.
 Isotropic polarizability for W=    0.000000      523.46 Bohr**3.
 End of Minotr F.D. properties file   721 does not exist.
 End of Minotr F.D. properties file   722 does not exist.
 End of Minotr F.D. properties file   788 does not exist.
 Hyperfine terms turned off by default for NAtoms > 100.

 **********************************************************************

            Population analysis using the SCF Density.

 **********************************************************************

 Orbital symmetries:
       Occupied  (A) (A) (A) (A) (A) (A) (A) (A) (A) (A) (A) (A)
                 (A) (A) (A) (A) (A) (A) (A) (A) (A) (A) (A) (A)
                 (A) (A) (A) (A) (A) (A) (A) (A) (A) (A) (A) (A)
                 (A) (A) (A) (A) (A) (A) (A) (A) (A) (A) (A) (A)
                 (A) (A) (A) (A) (A) (A) (A) (A) (A) (A) (A) (A)
                 (A) (A) (A) (A) (A) (A) (A) (A) (A) (A) (A) (A)
                 (A) (A) (A) (A) (A) (A) (A) (A) (A) (A) (A) (A)
                 (A) (A) (A) (A) (A) (A) (A) (A) (A) (A) (A) (A)
                 (A) (A) (A) (A) (A) (A) (A) (A) (A) (A) (A) (A)
                 (A) (A) (A) (A) (A) (A) (A) (A) (A) (A) (A) (A)
                 (A) (A) (A) (A) (A) (A) (A) (A) (A) (A) (A) (A)
                 (A) (A) (A) (A) (A) (A) (A) (A) (A) (A) (A) (A)
                 (A) (A) (A) (A) (A) (A) (A) (A) (A) (A) (A) (A)
                 (A) (A) (A) (A) (A) (A) (A) (A) (A) (A) (A) (A)
                 (A) (A) (A) (A) (A) (A) (A) (A) (A) (A) (A) (A)
                 (A) (A) (A) (A) (A) (A) (A) (A) (A) (A) (A) (A)
                 (A) (A) (A) (A) (A) (A) (A) (A) (A) (A) (A) (A)
                 (A) (A) (A) (A) (A) (A) (A) (A) (A) (A) (A) (A)
                 (A) (A) (A) (A) (A) (A) (A) (A) (A)
       Virtual   (A) (A) (A) (A) (A) (A) (A) (A) (A) (A) (A) (A)
                 (A) (A) (A) (A) (A) (A) (A) (A) (A) (A) (A) (A)
                 (A) (A) (A) (A) (A) (A) (A) (A) (A) (A) (A) (A)
                 (A) (A) (A) (A) (A) (A) (A) (A) (A) (A) (A) (A)
                 (A) (A) (A) (A) (A) (A) (A) (A) (A) (A) (A) (A)
                 (A) (A) (A) (A) (A) (A) (A) (A) (A) (A) (A) (A)
                 (A) (A) (A) (A) (A) (A) (A) (A) (A) (A) (A) (A)
                 (A) (A) (A) (A) (A) (A) (A) (A) (A) (A) (A) (A)
                 (A) (A) (A) (A) (A) (A) (A) (A) (A) (A) (A) (A)
                 (A) (A) (A) (A) (A) (A) (A) (A) (A) (A) (A) (A)
                 (A) (A) (A) (A) (A) (A) (A) (A) (A) (A) (A) (A)
                 (A) (A) (A) (A) (A) (A) (A) (A) (A) (A) (A) (A)
                 (A) (A) (A) (A) (A) (A) (A) (A) (A) (A) (A) (A)
                 (A) (A) (A) (A) (A) (A) (A) (A) (A) (A) (A) (A)
                 (A) (A) (A) (A) (A) (A) (A) (A) (A) (A) (A) (A)
                 (A) (A) (A) (A) (A) (A) (A) (A) (A) (A) (A) (A)
                 (A) (A) (A) (A) (A) (A) (A) (A) (A) (A) (A) (A)
                 (A) (A) (A) (A) (A) (A) (A) (A) (A) (A) (A) (A)
                 (A) (A) (A) (A) (A) (A) (A) (A) (A) (A) (A) (A)
                 (A) (A) (A) (A) (A) (A) (A) (A) (A) (A) (A) (A)
                 (A) (A) (A) (A) (A) (A) (A) (A) (A) (A) (A) (A)
                 (A) (A) (A) (A) (A) (A) (A) (A) (A) (A) (A) (A)
                 (A) (A) (A) (A) (A) (A) (A) (A) (A) (A) (A) (A)
                 (A) (A) (A) (A) (A) (A) (A) (A) (A) (A) (A) (A)
                 (A) (A) (A) (A) (A) (A) (A) (A) (A) (A) (A) (A)
                 (A) (A) (A) (A) (A) (A) (A) (A) (A) (A) (A) (A)
                 (A) (A) (A) (A) (A) (A) (A) (A) (A) (A) (A) (A)
                 (A) (A) (A) (A) (A) (A) (A) (A) (A) (A) (A) (A)
                 (A) (A) (A) (A) (A) (A) (A) (A) (A) (A) (A) (A)
                 (A) (A) (A) (A) (A) (A) (A) (A) (A) (A) (A) (A)
                 (A) (A) (A) (A) (A) (A) (A) (A) (A) (A) (A) (A)
                 (A) (A) (A) (A) (A) (A) (A) (A) (A) (A) (A) (A)
                 (A) (A) (A) (A) (A) (A) (A) (A) (A) (A) (A) (A)
                 (A) (A) (A) (A) (A) (A) (A) (A) (A) (A) (A) (A)
                 (A) (A) (A) (A) (A) (A) (A) (A) (A) (A) (A) (A)
                 (A) (A) (A) (A) (A) (A) (A) (A) (A) (A) (A) (A)
                 (A) (A) (A) (A) (A) (A) (A) (A) (A) (A) (A) (A)
                 (A) (A) (A) (A) (A) (A) (A) (A) (A) (A) (A) (A)
                 (A) (A) (A) (A) (A) (A) (A) (A) (A) (A) (A) (A)
                 (A) (A) (A) (A) (A) (A) (A) (A) (A) (A) (A) (A)
                 (A) (A) (A) (A) (A) (A) (A) (A) (A) (A) (A) (A)
                 (A) (A) (A) (A) (A) (A) (A) (A) (A) (A) (A) (A)
                 (A) (A) (A) (A) (A) (A) (A) (A) (A) (A) (A) (A)
                 (A) (A) (A) (A) (A) (A) (A) (A) (A) (A) (A) (A)
                 (A) (A) (A) (A) (A) (A) (A) (A) (A) (A) (A) (A)
                 (A) (A) (A) (A) (A) (A) (A) (A) (A) (A) (A) (A)
                 (A) (A) (A) (A) (A) (A) (A) (A) (A) (A) (A) (A)
                 (A) (A) (A) (A) (A) (A) (A) (A) (A) (A) (A) (A)
                 (A) (A) (A) (A) (A) (A) (A) (A) (A) (A) (A) (A)
                 (A) (A) (A) (A) (A) (A) (A) (A) (A) (A) (A) (A)
                 (A) (A) (A) (A) (A) (A) (A) (A) (A) (A) (A) (A)
                 (A) (A) (A) (A) (A) (A) (A) (A) (A) (A) (A) (A)
                 (A) (A) (A) (A) (A) (A) (A) (A) (A) (A) (A) (A)
                 (A) (A) (A) (A) (A) (A) (A) (A) (A) (A) (A) (A)
                 (A) (A) (A) (A) (A) (A) (A) (A) (A) (A) (A) (A)
                 (A) (A) (A) (A) (A) (A) (A) (A) (A) (A) (A) (A)
                 (A) (A) (A) (A) (A) (A) (A) (A) (A) (A) (A) (A)
                 (A) (A) (A) (A) (A) (A) (A) (A) (A) (A) (A) (A)
                 (A) (A) (A) (A) (A) (A) (A) (A) (A) (A) (A) (A)
                 (A) (A) (A) (A) (A)
 The electronic state is 1-A.
 Alpha  occ. eigenvalues --  -24.83735 -24.83277 -24.83222 -24.82989 -24.82957
 Alpha  occ. eigenvalues --  -24.82685 -19.21227 -19.21094 -19.21052 -19.20685
 Alpha  occ. eigenvalues --  -19.20596 -19.20373 -19.17032 -14.46083 -14.45233
 Alpha  occ. eigenvalues --  -14.41349 -10.51777 -10.51477 -10.32973 -10.32948
 Alpha  occ. eigenvalues --  -10.32759 -10.31750 -10.30823 -10.30100 -10.29986
 Alpha  occ. eigenvalues --  -10.29956 -10.29940 -10.29821 -10.29769 -10.29740
 Alpha  occ. eigenvalues --  -10.29518 -10.29400 -10.29366 -10.29018 -10.28882
 Alpha  occ. eigenvalues --  -10.26559 -10.24127 -10.24078 -10.23573 -10.23332
 Alpha  occ. eigenvalues --  -10.23331 -10.23222 -10.23159 -10.23135 -10.23098
 Alpha  occ. eigenvalues --  -10.23066 -10.22955 -10.22942 -10.22788 -10.22742
 Alpha  occ. eigenvalues --  -10.22617 -10.22522 -10.22519 -10.21784  -6.82215
 Alpha  occ. eigenvalues --   -6.81726  -6.80711  -3.65558  -2.07903  -2.07169
 Alpha  occ. eigenvalues --   -2.06839  -1.36148  -1.35816  -1.27655  -1.27333
 Alpha  occ. eigenvalues --   -1.27170  -1.26823  -1.07190  -1.06892  -1.06642
 Alpha  occ. eigenvalues --   -1.02891  -1.01079  -1.00170  -0.99850  -0.99776
 Alpha  occ. eigenvalues --   -0.98588  -0.92554  -0.86859  -0.86009  -0.84239
 Alpha  occ. eigenvalues --   -0.81201  -0.81153  -0.80874  -0.80654  -0.80528
 Alpha  occ. eigenvalues --   -0.76660  -0.75869  -0.75525  -0.75261  -0.75065
 Alpha  occ. eigenvalues --   -0.72719  -0.71076  -0.70763  -0.70504  -0.70395
 Alpha  occ. eigenvalues --   -0.70011  -0.69441  -0.68936  -0.68239  -0.67945
 Alpha  occ. eigenvalues --   -0.67686  -0.66511  -0.65694  -0.65433  -0.62703
 Alpha  occ. eigenvalues --   -0.62284  -0.62162  -0.62051  -0.61821  -0.61677
 Alpha  occ. eigenvalues --   -0.61491  -0.60908  -0.60711  -0.60446  -0.57831
 Alpha  occ. eigenvalues --   -0.57066  -0.55765  -0.55303  -0.54944  -0.54903
 Alpha  occ. eigenvalues --   -0.54575  -0.53948  -0.53540  -0.52662  -0.51835
 Alpha  occ. eigenvalues --   -0.50140  -0.49721  -0.49572  -0.49416  -0.49201
 Alpha  occ. eigenvalues --   -0.49059  -0.48730  -0.48523  -0.47765  -0.47724
 Alpha  occ. eigenvalues --   -0.47665  -0.47252  -0.47034  -0.46870  -0.46813
 Alpha  occ. eigenvalues --   -0.46597  -0.46368  -0.46183  -0.45894  -0.45647
 Alpha  occ. eigenvalues --   -0.45532  -0.45305  -0.45274  -0.45032  -0.44797
 Alpha  occ. eigenvalues --   -0.44619  -0.44436  -0.44031  -0.43891  -0.43714
 Alpha  occ. eigenvalues --   -0.43509  -0.43446  -0.43197  -0.43142  -0.42824
 Alpha  occ. eigenvalues --   -0.42516  -0.42200  -0.41073  -0.40718  -0.40624
 Alpha  occ. eigenvalues --   -0.40458  -0.40342  -0.40262  -0.40227  -0.40167
 Alpha  occ. eigenvalues --   -0.40044  -0.39977  -0.39757  -0.39611  -0.39541
 Alpha  occ. eigenvalues --   -0.39411  -0.39224  -0.39040  -0.38474  -0.38070
 Alpha  occ. eigenvalues --   -0.37930  -0.37694  -0.37602  -0.37400  -0.37281
 Alpha  occ. eigenvalues --   -0.37138  -0.36912  -0.36653  -0.36589  -0.36458
 Alpha  occ. eigenvalues --   -0.36270  -0.36084  -0.36035  -0.35455  -0.35228
 Alpha  occ. eigenvalues --   -0.34964  -0.34717  -0.34278  -0.33997  -0.33909
 Alpha  occ. eigenvalues --   -0.33526  -0.33266  -0.33246  -0.32817  -0.32284
 Alpha  occ. eigenvalues --   -0.32199  -0.32078  -0.31916  -0.31781  -0.31595
 Alpha  occ. eigenvalues --   -0.30911  -0.30619  -0.30245  -0.29281  -0.28497
 Alpha  occ. eigenvalues --   -0.28031  -0.27359  -0.27223  -0.26857  -0.26610
 Alpha  occ. eigenvalues --   -0.25830  -0.24421  -0.24092  -0.23491  -0.19061
 Alpha virt. eigenvalues --   -0.08325  -0.04478  -0.03800  -0.00189   0.01289
 Alpha virt. eigenvalues --    0.02123   0.04873   0.05015   0.05673   0.06960
 Alpha virt. eigenvalues --    0.07143   0.08149   0.08969   0.09425   0.09593
 Alpha virt. eigenvalues --    0.10069   0.10376   0.10911   0.11062   0.11188
 Alpha virt. eigenvalues --    0.11401   0.12036   0.12175   0.12253   0.12816
 Alpha virt. eigenvalues --    0.12961   0.13415   0.13733   0.13794   0.14113
 Alpha virt. eigenvalues --    0.14304   0.14407   0.14508   0.14779   0.14941
 Alpha virt. eigenvalues --    0.15222   0.15446   0.15482   0.15656   0.15899
 Alpha virt. eigenvalues --    0.16197   0.16382   0.16597   0.16653   0.16805
 Alpha virt. eigenvalues --    0.16864   0.17227   0.17397   0.17523   0.17785
 Alpha virt. eigenvalues --    0.18055   0.18259   0.18400   0.18615   0.18699
 Alpha virt. eigenvalues --    0.18795   0.18951   0.19376   0.19484   0.19639
 Alpha virt. eigenvalues --    0.19764   0.20036   0.20134   0.20383   0.20662
 Alpha virt. eigenvalues --    0.20821   0.20938   0.21153   0.21304   0.21503
 Alpha virt. eigenvalues --    0.21678   0.21739   0.22071   0.22254   0.22553
 Alpha virt. eigenvalues --    0.22749   0.22944   0.23004   0.23137   0.23308
 Alpha virt. eigenvalues --    0.23388   0.23599   0.23723   0.23954   0.24000
 Alpha virt. eigenvalues --    0.24395   0.24462   0.24820   0.25000   0.25261
 Alpha virt. eigenvalues --    0.25614   0.25669   0.25939   0.26132   0.26233
 Alpha virt. eigenvalues --    0.26613   0.26868   0.26932   0.26993   0.27339
 Alpha virt. eigenvalues --    0.27587   0.27914   0.28274   0.28618   0.29592
 Alpha virt. eigenvalues --    0.29720   0.30197   0.30485   0.30558   0.30968
 Alpha virt. eigenvalues --    0.31734   0.31996   0.32597   0.33434   0.34162
 Alpha virt. eigenvalues --    0.34921   0.35131   0.35586   0.35776   0.36631
 Alpha virt. eigenvalues --    0.36907   0.37244   0.37600   0.38659   0.39097
 Alpha virt. eigenvalues --    0.39894   0.40243   0.41237   0.42570   0.43591
 Alpha virt. eigenvalues --    0.44657   0.45020   0.46136   0.46689   0.47010
 Alpha virt. eigenvalues --    0.47415   0.48160   0.48854   0.49228   0.50038
 Alpha virt. eigenvalues --    0.50192   0.50371   0.50723   0.50830   0.51227
 Alpha virt. eigenvalues --    0.51409   0.51754   0.51896   0.52175   0.52421
 Alpha virt. eigenvalues --    0.52690   0.53238   0.53595   0.54167   0.54320
 Alpha virt. eigenvalues --    0.54905   0.55150   0.55309   0.55905   0.56146
 Alpha virt. eigenvalues --    0.56368   0.56615   0.56638   0.56747   0.57110
 Alpha virt. eigenvalues --    0.57621   0.57831   0.58259   0.58496   0.58614
 Alpha virt. eigenvalues --    0.59148   0.59343   0.59505   0.59812   0.59950
 Alpha virt. eigenvalues --    0.60301   0.60684   0.60951   0.61174   0.61477
 Alpha virt. eigenvalues --    0.61706   0.61735   0.62410   0.62608   0.62789
 Alpha virt. eigenvalues --    0.63219   0.63692   0.64041   0.64365   0.64700
 Alpha virt. eigenvalues --    0.65262   0.65430   0.65847   0.66162   0.66897
 Alpha virt. eigenvalues --    0.67079   0.67326   0.67424   0.67867   0.68040
 Alpha virt. eigenvalues --    0.68512   0.68834   0.69057   0.69389   0.69669
 Alpha virt. eigenvalues --    0.70524   0.70802   0.70957   0.71071   0.71471
 Alpha virt. eigenvalues --    0.71530   0.71811   0.71948   0.72445   0.72629
 Alpha virt. eigenvalues --    0.73111   0.73462   0.73911   0.74059   0.74145
 Alpha virt. eigenvalues --    0.74505   0.74717   0.75460   0.75686   0.76276
 Alpha virt. eigenvalues --    0.76469   0.76828   0.77492   0.77695   0.78485
 Alpha virt. eigenvalues --    0.78838   0.79191   0.79577   0.79888   0.80132
 Alpha virt. eigenvalues --    0.80437   0.80776   0.81244   0.81350   0.81784
 Alpha virt. eigenvalues --    0.82202   0.82502   0.82746   0.83165   0.83252
 Alpha virt. eigenvalues --    0.83749   0.83920   0.84120   0.84511   0.84560
 Alpha virt. eigenvalues --    0.84746   0.84999   0.85054   0.85673   0.85824
 Alpha virt. eigenvalues --    0.86194   0.86753   0.86811   0.87098   0.87359
 Alpha virt. eigenvalues --    0.87717   0.87872   0.88084   0.88290   0.88480
 Alpha virt. eigenvalues --    0.88607   0.88818   0.89192   0.89339   0.89455
 Alpha virt. eigenvalues --    0.89910   0.90104   0.90399   0.90641   0.90733
 Alpha virt. eigenvalues --    0.91139   0.91308   0.91452   0.91689   0.91929
 Alpha virt. eigenvalues --    0.92021   0.92361   0.92799   0.93023   0.93305
 Alpha virt. eigenvalues --    0.93717   0.94065   0.94380   0.94507   0.94737
 Alpha virt. eigenvalues --    0.94860   0.94959   0.95369   0.95738   0.96238
 Alpha virt. eigenvalues --    0.96428   0.96516   0.96726   0.97177   0.97467
 Alpha virt. eigenvalues --    0.97832   0.98302   0.98456   0.99039   0.99246
 Alpha virt. eigenvalues --    0.99619   0.99847   1.00169   1.00961   1.01343
 Alpha virt. eigenvalues --    1.01800   1.02035   1.02544   1.03235   1.03546
 Alpha virt. eigenvalues --    1.03643   1.04623   1.05239   1.05306   1.06459
 Alpha virt. eigenvalues --    1.06763   1.07387   1.08031   1.08099   1.08866
 Alpha virt. eigenvalues --    1.09502   1.09710   1.10156   1.10926   1.11335
 Alpha virt. eigenvalues --    1.12035   1.13210   1.13529   1.14068   1.14276
 Alpha virt. eigenvalues --    1.14596   1.15725   1.15815   1.16150   1.16699
 Alpha virt. eigenvalues --    1.17206   1.17570   1.18057   1.18280   1.18516
 Alpha virt. eigenvalues --    1.18630   1.18766   1.19159   1.19852   1.20323
 Alpha virt. eigenvalues --    1.20698   1.21035   1.21695   1.22796   1.22916
 Alpha virt. eigenvalues --    1.23144   1.23604   1.24007   1.24249   1.24614
 Alpha virt. eigenvalues --    1.25495   1.26527   1.27170   1.27899   1.28168
 Alpha virt. eigenvalues --    1.28265   1.29414   1.30132   1.30720   1.30989
 Alpha virt. eigenvalues --    1.32198   1.33122   1.33402   1.33547   1.34102
 Alpha virt. eigenvalues --    1.34495   1.34585   1.35322   1.35892   1.36259
 Alpha virt. eigenvalues --    1.36452   1.36929   1.37300   1.38047   1.38247
 Alpha virt. eigenvalues --    1.38371   1.38453   1.38716   1.39248   1.39723
 Alpha virt. eigenvalues --    1.39886   1.40472   1.40794   1.41614   1.42194
 Alpha virt. eigenvalues --    1.42317   1.42976   1.43199   1.43955   1.44321
 Alpha virt. eigenvalues --    1.44768   1.45490   1.45932   1.46443   1.46584
 Alpha virt. eigenvalues --    1.46939   1.47128   1.47410   1.47994   1.48256
 Alpha virt. eigenvalues --    1.48979   1.49461   1.50096   1.50616   1.51227
 Alpha virt. eigenvalues --    1.51368   1.51493   1.53447   1.53703   1.54426
 Alpha virt. eigenvalues --    1.54851   1.55629   1.57889   1.58405   1.58607
 Alpha virt. eigenvalues --    1.59433   1.60223   1.61239   1.61795   1.62151
 Alpha virt. eigenvalues --    1.62781   1.63649   1.63890   1.64340   1.64978
 Alpha virt. eigenvalues --    1.65086   1.65742   1.66299   1.66814   1.67227
 Alpha virt. eigenvalues --    1.67909   1.68197   1.68546   1.68995   1.69739
 Alpha virt. eigenvalues --    1.70357   1.71128   1.71385   1.72011   1.72642
 Alpha virt. eigenvalues --    1.72769   1.73546   1.73837   1.74729   1.75185
 Alpha virt. eigenvalues --    1.75885   1.76064   1.77039   1.77510   1.77915
 Alpha virt. eigenvalues --    1.78664   1.78860   1.79485   1.79843   1.80316
 Alpha virt. eigenvalues --    1.80591   1.80781   1.81040   1.81473   1.82207
 Alpha virt. eigenvalues --    1.82522   1.82755   1.83426   1.84010   1.84516
 Alpha virt. eigenvalues --    1.84692   1.85093   1.86043   1.86083   1.86222
 Alpha virt. eigenvalues --    1.86585   1.86882   1.86988   1.87694   1.87940
 Alpha virt. eigenvalues --    1.88068   1.88577   1.89501   1.89566   1.89938
 Alpha virt. eigenvalues --    1.90403   1.90488   1.90875   1.91045   1.91387
 Alpha virt. eigenvalues --    1.91780   1.91966   1.92296   1.92467   1.92600
 Alpha virt. eigenvalues --    1.92674   1.92679   1.93145   1.93574   1.93684
 Alpha virt. eigenvalues --    1.94130   1.94434   1.94850   1.95764   1.95845
 Alpha virt. eigenvalues --    1.96585   1.96854   1.97394   1.97937   1.98369
 Alpha virt. eigenvalues --    1.99002   1.99747   1.99882   2.00483   2.01458
 Alpha virt. eigenvalues --    2.01536   2.01813   2.02084   2.02444   2.02502
 Alpha virt. eigenvalues --    2.02832   2.02941   2.03200   2.03331   2.03920
 Alpha virt. eigenvalues --    2.04296   2.04396   2.04812   2.05243   2.05512
 Alpha virt. eigenvalues --    2.06232   2.06456   2.06658   2.07056   2.07346
 Alpha virt. eigenvalues --    2.07608   2.07826   2.08294   2.08765   2.09093
 Alpha virt. eigenvalues --    2.09375   2.09493   2.09767   2.10374   2.10467
 Alpha virt. eigenvalues --    2.10957   2.11350   2.11474   2.12328   2.12630
 Alpha virt. eigenvalues --    2.12866   2.13404   2.13556   2.14098   2.14168
 Alpha virt. eigenvalues --    2.14729   2.15567   2.15699   2.16009   2.16419
 Alpha virt. eigenvalues --    2.16836   2.17014   2.17558   2.17840   2.17980
 Alpha virt. eigenvalues --    2.18491   2.18844   2.19228   2.19544   2.19876
 Alpha virt. eigenvalues --    2.20061   2.20470   2.20940   2.21683   2.21720
 Alpha virt. eigenvalues --    2.22010   2.22119   2.22183   2.22728   2.23248
 Alpha virt. eigenvalues --    2.23409   2.23846   2.23972   2.24530   2.24833
 Alpha virt. eigenvalues --    2.25158   2.25539   2.26119   2.26372   2.26984
 Alpha virt. eigenvalues --    2.27249   2.27663   2.28445   2.28722   2.29696
 Alpha virt. eigenvalues --    2.30319   2.30838   2.30889   2.31581   2.31668
 Alpha virt. eigenvalues --    2.32421   2.33326   2.33558   2.33805   2.34023
 Alpha virt. eigenvalues --    2.34927   2.35597   2.35864   2.36445   2.37323
 Alpha virt. eigenvalues --    2.37431   2.38527   2.38972   2.39820   2.40169
 Alpha virt. eigenvalues --    2.40562   2.41781   2.42887   2.43866   2.44343
 Alpha virt. eigenvalues --    2.45069   2.46410   2.46658   2.46847   2.47904
 Alpha virt. eigenvalues --    2.48039   2.49286   2.49879   2.50482   2.50505
 Alpha virt. eigenvalues --    2.50894   2.51067   2.51767   2.53332   2.54544
 Alpha virt. eigenvalues --    2.55817   2.57992   2.58324   2.60215   2.60288
 Alpha virt. eigenvalues --    2.60438   2.60687   2.61773   2.62596   2.63086
 Alpha virt. eigenvalues --    2.64021   2.64377   2.64717   2.65169   2.66497
 Alpha virt. eigenvalues --    2.67419   2.67902   2.68650   2.70748   2.71145
 Alpha virt. eigenvalues --    2.75327   2.76035   2.76652   2.76967   2.77515
 Alpha virt. eigenvalues --    2.77672   2.78209   2.78473   2.78709   2.79224
 Alpha virt. eigenvalues --    2.79516   2.80215   2.80373   2.80819   2.81171
 Alpha virt. eigenvalues --    2.81544   2.82301   2.83547   2.83726   2.84826
 Alpha virt. eigenvalues --    2.86418   2.89387   2.90122   2.91045   2.92222
 Alpha virt. eigenvalues --    2.92458   2.93000   2.94509   2.95104   2.95863
 Alpha virt. eigenvalues --    2.96053   2.97629   2.98913   3.02569   3.03835
 Alpha virt. eigenvalues --    3.05436   3.06539   3.07045   3.07180   3.08169
 Alpha virt. eigenvalues --    3.09318   3.11759   3.12236   3.12406   3.12631
 Alpha virt. eigenvalues --    3.13161   3.13389   3.14579   3.21244   3.27138
 Alpha virt. eigenvalues --    3.32826   3.46206  11.62858
          Condensed to atoms (all electrons):
 Mulliken charges:
               1
     1  C    0.339481
     2  C    0.061737
     3  C   -0.066426
     4  C   -0.164492
     5  C   -0.167200
     6  C    0.352263
     7  C    0.053635
     8  C   -0.077540
     9  C   -0.152827
    10  C   -0.180739
    11  H    0.188982
    12  H    0.200059
    13  H    0.179601
    14  H    0.237501
    15  H    0.201183
    16  H    0.179589
    17  N   -0.474820
    18  N   -0.534193
    19  Ir  -0.288142
    20  O   -0.504661
    21  O   -0.501416
    22  O   -0.504760
    23  B    0.514592
    24  B    0.496722
    25  B    0.535395
    26  O   -0.491879
    27  O   -0.503691
    28  C    0.292922
    29  C    0.295515
    30  C    0.301293
    31  C    0.289889
    32  C    0.286473
    33  C    0.295887
    34  O   -0.533881
    35  C   -0.510036
    36  H    0.171117
    37  H    0.151258
    38  H    0.171341
    39  C   -0.512733
    40  H    0.175991
    41  H    0.153748
    42  H    0.154505
    43  C   -0.501327
    44  H    0.149152
    45  H    0.158315
    46  H    0.180169
    47  C   -0.513521
    48  H    0.153511
    49  H    0.173630
    50  H    0.164228
    51  C   -0.507884
    52  H    0.186023
    53  H    0.175333
    54  H    0.142664
    55  C   -0.509347
    56  H    0.149091
    57  H    0.173561
    58  H    0.168114
    59  C   -0.508187
    60  H    0.165670
    61  H    0.167262
    62  H    0.155789
    63  C   -0.505654
    64  H    0.176040
    65  H    0.165003
    66  H    0.155258
    67  C   -0.508921
    68  H    0.168290
    69  H    0.149726
    70  H    0.176327
    71  C   -0.508052
    72  H    0.161886
    73  H    0.186999
    74  H    0.152766
    75  C   -0.511242
    76  H    0.156994
    77  H    0.170596
    78  H    0.160003
    79  C   -0.508029
    80  H    0.153600
    81  H    0.168463
    82  H    0.175193
    83  H    0.165214
    84  C    0.556045
    85  O   -0.538991
    86  C   -0.386661
    87  H    0.145619
    88  H    0.168208
    89  C   -0.333692
    90  H    0.149078
    91  H    0.183844
    92  N   -0.351239
    93  C   -0.371629
    94  H    0.179013
    95  H    0.201611
    96  H    0.164823
    97  C   -0.293109
    98  H    0.145283
    99  H    0.152615
   100  C   -0.275665
   101  H    0.147632
   102  H    0.163507
   103  C   -0.284010
   104  H    0.145729
   105  H    0.144155
   106  C   -0.498327
   107  H    0.159798
   108  H    0.162845
   109  H    0.161839
   110  C    0.973311
   111  F   -0.308201
   112  F   -0.315415
   113  F   -0.317366
   114  C    0.965417
   115  F   -0.306722
   116  F   -0.308974
   117  F   -0.314313
 Sum of Mulliken charges =  -0.00000
 Mulliken charges with hydrogens summed into heavy atoms:
               1
     1  C    0.339481
     2  C    0.250719
     3  C   -0.066426
     4  C    0.035567
     5  C    0.012402
     6  C    0.352263
     7  C    0.291136
     8  C   -0.077540
     9  C    0.048357
    10  C   -0.001151
    17  N   -0.474820
    18  N   -0.534193
    19  Ir  -0.122929
    20  O   -0.504661
    21  O   -0.501416
    22  O   -0.504760
    23  B    0.514592
    24  B    0.496722
    25  B    0.535395
    26  O   -0.491879
    27  O   -0.503691
    28  C    0.292922
    29  C    0.295515
    30  C    0.301293
    31  C    0.289889
    32  C    0.286473
    33  C    0.295887
    34  O   -0.533881
    35  C   -0.016320
    39  C   -0.028490
    43  C   -0.013691
    47  C   -0.022152
    51  C   -0.003865
    55  C   -0.018581
    59  C   -0.019466
    63  C   -0.009354
    67  C   -0.014578
    71  C   -0.006401
    75  C   -0.023649
    79  C   -0.010773
    84  C    0.556045
    85  O   -0.538991
    86  C   -0.072834
    89  C   -0.000771
    92  N   -0.351239
    93  C    0.173817
    97  C    0.004788
   100  C    0.035474
   103  C    0.005874
   106  C   -0.013845
   110  C    0.973311
   111  F   -0.308201
   112  F   -0.315415
   113  F   -0.317366
   114  C    0.965417
   115  F   -0.306722
   116  F   -0.308974
   117  F   -0.314313
 APT charges:
               1
     1  C    0.248901
     2  C    0.122467
     3  C   -0.226229
     4  C    0.113029
     5  C   -0.182280
     6  C    0.219656
     7  C    0.017237
     8  C   -0.202503
     9  C    0.107651
    10  C   -0.186460
    11  H    0.074652
    12  H    0.059832
    13  H    0.046397
    14  H    0.171196
    15  H    0.059422
    16  H    0.047379
    17  N   -0.218626
    18  N   -0.057668
    19  Ir  -0.823519
    20  O   -0.913099
    21  O   -0.953758
    22  O   -0.945092
    23  B    1.295135
    24  B    1.242951
    25  B    1.246794
    26  O   -0.972201
    27  O   -1.002842
    28  C    0.498158
    29  C    0.482500
    30  C    0.504908
    31  C    0.501449
    32  C    0.493335
    33  C    0.494786
    34  O   -1.018839
    35  C   -0.003451
    36  H    0.002826
    37  H   -0.014424
    38  H   -0.000459
    39  C   -0.050366
    40  H    0.031179
    41  H    0.004361
    42  H   -0.017678
    43  C   -0.030308
    44  H   -0.026959
    45  H   -0.002129
    46  H    0.012540
    47  C   -0.009512
    48  H   -0.018501
    49  H    0.006138
    50  H    0.000882
    51  C   -0.033660
    52  H    0.027045
    53  H    0.003359
    54  H   -0.026414
    55  C   -0.006998
    56  H   -0.015381
    57  H    0.000779
    58  H    0.000195
    59  C   -0.010622
    60  H    0.012026
    61  H   -0.000004
    62  H   -0.017712
    63  C   -0.029278
    64  H    0.010941
    65  H    0.001429
    66  H   -0.020875
    67  C   -0.003746
    68  H    0.002820
    69  H   -0.016989
    70  H    0.004025
    71  C   -0.034288
    72  H   -0.009827
    73  H    0.012854
    74  H   -0.017012
    75  C   -0.013005
    76  H   -0.012317
    77  H    0.006892
    78  H   -0.008822
    79  C   -0.023778
    80  H   -0.023943
    81  H   -0.001424
    82  H    0.001588
    83  H    0.001879
    84  C    0.816404
    85  O   -0.679645
    86  C   -0.025773
    87  H   -0.044621
    88  H   -0.010733
    89  C    0.347567
    90  H   -0.060624
    91  H   -0.037383
    92  N   -0.763694
    93  C    0.261247
    94  H   -0.034145
    95  H    0.010985
    96  H    0.005915
    97  C    0.145398
    98  H   -0.028108
    99  H   -0.065849
   100  C    0.057021
   101  H   -0.033555
   102  H   -0.025208
   103  C    0.142124
   104  H   -0.048313
   105  H   -0.059879
   106  C    0.053383
   107  H   -0.016123
   108  H   -0.016052
   109  H   -0.039420
   110  C    1.777826
   111  F   -0.597993
   112  F   -0.588019
   113  F   -0.504277
   114  C    1.801922
   115  F   -0.601656
   116  F   -0.524619
   117  F   -0.602701
 Sum of APT charges =   0.00000
 APT charges with hydrogens summed into heavy atoms:
               1
     1  C    0.248901
     2  C    0.197119
     3  C   -0.226229
     4  C    0.172860
     5  C   -0.135883
     6  C    0.219656
     7  C    0.188432
     8  C   -0.202503
     9  C    0.167074
    10  C   -0.139081
    17  N   -0.218626
    18  N   -0.057668
    19  Ir  -0.821641
    20  O   -0.913099
    21  O   -0.953758
    22  O   -0.945092
    23  B    1.295135
    24  B    1.242951
    25  B    1.246794
    26  O   -0.972201
    27  O   -1.002842
    28  C    0.498158
    29  C    0.482500
    30  C    0.504908
    31  C    0.501449
    32  C    0.493335
    33  C    0.494786
    34  O   -1.018839
    35  C   -0.015508
    39  C   -0.032503
    43  C   -0.046856
    47  C   -0.020993
    51  C   -0.029670
    55  C   -0.021405
    59  C   -0.016311
    63  C   -0.037783
    67  C   -0.013889
    71  C   -0.048272
    75  C   -0.027251
    79  C   -0.047556
    84  C    0.816404
    85  O   -0.679645
    86  C   -0.081127
    89  C    0.249560
    92  N   -0.763694
    93  C    0.244001
    97  C    0.051441
   100  C   -0.001742
   103  C    0.033932
   106  C   -0.018212
   110  C    1.777826
   111  F   -0.597993
   112  F   -0.588019
   113  F   -0.504277
   114  C    1.801922
   115  F   -0.601656
   116  F   -0.524619
   117  F   -0.602701
 Electronic spatial extent (au):  <R**2>=          37729.5771
 Charge=             -0.0000 electrons
 Dipole moment (field-independent basis, Debye):
    X=             -0.4081    Y=              1.1583    Z=             -2.5195  Tot=              2.8028
 Quadrupole moment (field-independent basis, Debye-Ang):
   XX=           -347.8778   YY=           -353.8893   ZZ=           -335.8627
   XY=              0.0592   XZ=              6.6480   YZ=             -1.4953
 Traceless Quadrupole moment (field-independent basis, Debye-Ang):
   XX=             -2.0012   YY=             -8.0127   ZZ=             10.0139
   XY=              0.0592   XZ=              6.6480   YZ=             -1.4953
 Octapole moment (field-independent basis, Debye-Ang**2):
  XXX=             65.0338  YYY=            111.5884  ZZZ=            -90.0845  XYY=             30.3331
  XXY=              8.6696  XXZ=              2.4686  XZZ=            -45.8785  YZZ=            -35.8542
  YYZ=             31.9624  XYZ=            -27.3035
 Hexadecapole moment (field-independent basis, Debye-Ang**3):
 XXXX=         -22289.1593 YYYY=         -16455.3112 ZZZZ=          -8634.5893 XXXY=           -242.9487
 XXXZ=             12.3390 YYYX=           -444.3881 YYYZ=            180.3461 ZZZX=            244.1961
 ZZZY=            297.7146 XXYY=          -6709.7069 XXZZ=          -5109.6508 YYZZ=          -4215.6433
 XXYZ=            -75.7720 YYXZ=             34.1477 ZZXY=           -178.0638
 N-N= 1.048686489961D+04 E-N=-2.785250981021D+04  KE= 2.862614036158D+03
  Exact polarizability:     570.548     -22.881     515.392      22.395      25.006     484.448
 Approx polarizability:     782.593     -67.115     720.806      41.881      69.447     765.405
   1 Symmetry operations used in ECPInt.
 ECPInt:  NShTT=   62835 NPrTT=  387974 LenC2=   44975 LenP2D=  137107.
 LDataN:  DoStor=T MaxTD1= 8 Len=  415
 Calling FoFJK, ICntrl=    100127 FMM=F ISym2X=0 I1Cent= 0 IOpClX= 0 NMat=1 NMatS=1 NMatT=0.
 Defaulting to unpruned grid for atomic number  77.
 Defaulting to unpruned grid for atomic number  77.
 Defaulting to unpruned grid for atomic number  77.
 Defaulting to unpruned grid for atomic number  77.
 Defaulting to unpruned grid for atomic number  77.
 Defaulting to unpruned grid for atomic number  77.
 Defaulting to unpruned grid for atomic number  77.
 Defaulting to unpruned grid for atomic number  77.
 Defaulting to unpruned grid for atomic number  77.
 Defaulting to unpruned grid for atomic number  77.
 Defaulting to unpruned grid for atomic number  77.
 Defaulting to unpruned grid for atomic number  77.
 Defaulting to unpruned grid for atomic number  77.
 Defaulting to unpruned grid for atomic number  77.
 Defaulting to unpruned grid for atomic number  77.
 Defaulting to unpruned grid for atomic number  77.
 Full mass-weighted force constant matrix:
 Low frequencies ---  -18.4340   -7.3083   -1.4045   -0.0007   -0.0003    0.0002
 Low frequencies ---    4.4808   13.6524   18.0092
 ******    1 imaginary frequencies (negative Signs) ****** 
 Diagonal vibrational polarizability:
      117.9980806      96.7193889      67.7504062
 Harmonic frequencies (cm**-1), IR intensities (KM/Mole), Raman scattering
 activities (A**4/AMU), depolarization ratios for plane and unpolarized
 incident light, reduced masses (AMU), force constants (mDyne/A),
 and normal coordinates:
                      1                      2                      3
                      A                      A                      A
 Frequencies --    -18.0383                13.4974                17.6919
 Red. masses --      5.9938                 4.0856                 4.7450
 Frc consts  --      0.0011                 0.0004                 0.0009
 IR Inten    --      0.0661                 0.0072                 0.0508
  Atom AN      X      Y      Z        X      Y      Z        X      Y      Z
     1   6     0.01  -0.01  -0.01    -0.01   0.00  -0.01     0.01   0.04  -0.01
     2   6     0.01  -0.00  -0.02    -0.00   0.01  -0.01     0.00   0.03   0.00
     3   6     0.02   0.01  -0.03    -0.00   0.01  -0.02    -0.00   0.03   0.01
     4   6     0.03   0.01  -0.03    -0.00   0.01  -0.01     0.00   0.04   0.00
     5   6     0.02  -0.01  -0.02    -0.01   0.00  -0.01     0.01   0.05  -0.01
     6   6     0.01  -0.02   0.00    -0.01   0.00  -0.01    -0.00   0.03  -0.01
     7   6    -0.00  -0.03   0.02     0.00   0.01  -0.02    -0.03  -0.01   0.01
     8   6     0.00  -0.03   0.02     0.01   0.02  -0.03    -0.04  -0.01   0.02
     9   6     0.01  -0.02   0.01     0.00   0.01  -0.02    -0.03   0.01   0.01
    10   6     0.01  -0.02   0.00    -0.00   0.01  -0.02    -0.01   0.03  -0.01
    11   1     0.00  -0.01  -0.02    -0.00   0.01  -0.01     0.01   0.03   0.00
    12   1     0.04   0.02  -0.04    -0.00   0.01  -0.01    -0.00   0.04   0.01
    13   1     0.02  -0.01  -0.01    -0.01  -0.00  -0.01     0.01   0.05  -0.01
    14   1    -0.01  -0.03   0.02     0.01   0.01  -0.03    -0.04  -0.02   0.02
    15   1     0.02  -0.02   0.01     0.00   0.02  -0.02    -0.03   0.01   0.01
    16   1     0.02  -0.02  -0.00    -0.01   0.00  -0.01     0.00   0.05  -0.01
    17   7     0.00  -0.01  -0.01    -0.01   0.00  -0.01     0.01   0.04  -0.01
    18   7    -0.00  -0.02   0.01    -0.00   0.01  -0.02    -0.01   0.01   0.00
    19  77    -0.00  -0.01   0.00    -0.01  -0.00  -0.01    -0.00   0.02  -0.00
    20   8    -0.03  -0.02  -0.04     0.02   0.01   0.03    -0.00  -0.02  -0.01
    21   8     0.01   0.01   0.00    -0.03  -0.04  -0.01    -0.01   0.04   0.00
    22   8    -0.05  -0.01   0.08    -0.00  -0.01  -0.02     0.03   0.03   0.01
    23   5     0.00   0.00   0.00    -0.02  -0.02  -0.01    -0.01   0.02   0.01
    24   5    -0.01  -0.00  -0.03    -0.00  -0.01   0.02     0.00  -0.00  -0.01
    25   5    -0.01  -0.01   0.04    -0.01  -0.00  -0.01     0.02   0.02   0.01
    26   8     0.01  -0.02   0.02    -0.01  -0.00  -0.01     0.02   0.00   0.02
    27   8    -0.00   0.02  -0.05    -0.01  -0.02   0.04     0.01  -0.00  -0.02
    28   6    -0.02   0.03  -0.07    -0.00  -0.01   0.06     0.01  -0.02  -0.03
    29   6    -0.03  -0.01  -0.05     0.02   0.01   0.04    -0.00  -0.04  -0.02
    30   6    -0.07  -0.01   0.10    -0.00  -0.01  -0.02     0.04   0.03   0.02
    31   6    -0.01  -0.03   0.07    -0.01   0.00  -0.02     0.02   0.01   0.03
    32   6     0.02   0.03   0.00    -0.04  -0.05  -0.01    -0.02   0.03   0.01
    33   6     0.02   0.02   0.01    -0.03  -0.04  -0.02    -0.03   0.01   0.03
    34   8     0.01   0.01   0.01    -0.02  -0.02  -0.01    -0.03  -0.00   0.02
    35   6    -0.05  -0.03  -0.08     0.03   0.03   0.06     0.01  -0.07  -0.03
    36   1    -0.06  -0.04  -0.10     0.03   0.03   0.07     0.02  -0.06  -0.04
    37   1    -0.05  -0.02  -0.09     0.03   0.03   0.07     0.01  -0.08  -0.03
    38   1    -0.06  -0.06  -0.06     0.04   0.04   0.05    -0.00  -0.08  -0.02
    39   6    -0.02  -0.00  -0.02     0.02   0.01   0.03    -0.02  -0.05   0.01
    40   1     0.00   0.02  -0.00    -0.00  -0.00   0.01    -0.02  -0.03   0.02
    41   1    -0.03  -0.03  -0.00     0.03   0.03   0.01    -0.03  -0.06   0.02
    42   1    -0.02   0.00  -0.04     0.02   0.01   0.04    -0.02  -0.06   0.01
    43   6    -0.06   0.03  -0.11     0.01  -0.01   0.08     0.01  -0.02  -0.05
    44   1    -0.07   0.03  -0.13     0.01  -0.01   0.09     0.02  -0.04  -0.06
    45   1    -0.07  -0.00  -0.11     0.01   0.00   0.08     0.02  -0.03  -0.06
    46   1    -0.05   0.05  -0.12    -0.00  -0.02   0.08     0.02  -0.01  -0.06
    47   6    -0.00   0.07  -0.08    -0.01  -0.02   0.07     0.00  -0.02  -0.02
    48   1    -0.02   0.06  -0.11    -0.00  -0.01   0.08     0.00  -0.04  -0.03
    49   1     0.01   0.09  -0.10    -0.02  -0.04   0.08     0.01  -0.01  -0.03
    50   1     0.02   0.07  -0.06    -0.01  -0.03   0.05    -0.00  -0.02  -0.00
    51   6     0.01   0.05  -0.01    -0.03  -0.06   0.01    -0.00   0.02  -0.00
    52   1    -0.00   0.04  -0.02    -0.02  -0.05   0.02     0.00   0.00  -0.01
    53   1     0.01   0.05  -0.02    -0.04  -0.06   0.02     0.01   0.03  -0.02
    54   1     0.02   0.06  -0.01    -0.04  -0.07   0.02    -0.01   0.01  -0.00
    55   6     0.03   0.04   0.01    -0.05  -0.06  -0.02    -0.02   0.06   0.02
    56   1     0.04   0.05   0.01    -0.06  -0.07  -0.02    -0.03   0.05   0.03
    57   1     0.03   0.04   0.01    -0.05  -0.07  -0.01    -0.01   0.07   0.01
    58   1     0.04   0.03   0.02    -0.05  -0.05  -0.03    -0.03   0.07   0.03
    59   6     0.02   0.03   0.01    -0.03  -0.04  -0.01    -0.04  -0.01   0.03
    60   1     0.02   0.02   0.02    -0.03  -0.03  -0.02    -0.05  -0.02   0.03
    61   1     0.02   0.03   0.00    -0.03  -0.04   0.01    -0.03  -0.02   0.01
    62   1     0.03   0.04   0.01    -0.04  -0.05  -0.01    -0.05  -0.01   0.03
    63   6     0.03   0.02   0.03    -0.04  -0.03  -0.04    -0.05   0.02   0.05
    64   1     0.03   0.02   0.03    -0.04  -0.03  -0.04    -0.05   0.04   0.05
    65   1     0.03   0.01   0.03    -0.03  -0.02  -0.05    -0.06   0.01   0.06
    66   1     0.03   0.03   0.03    -0.05  -0.04  -0.05    -0.06   0.03   0.06
    67   6    -0.01  -0.02   0.05    -0.00   0.00  -0.03     0.03  -0.00   0.05
    68   1    -0.04   0.01   0.01    -0.00  -0.00  -0.03     0.03  -0.00   0.06
    69   1    -0.02  -0.03   0.08    -0.00   0.00  -0.03     0.03  -0.00   0.05
    70   1     0.04  -0.03   0.03    -0.00   0.01  -0.03     0.01  -0.02   0.05
    71   6     0.05  -0.06   0.12    -0.01   0.01  -0.02     0.01  -0.00   0.02
    72   1     0.05  -0.07   0.14    -0.01   0.01  -0.01     0.01   0.01  -0.00
    73   1     0.10  -0.07   0.09    -0.01   0.02  -0.02     0.00  -0.02   0.02
    74   1     0.04  -0.07   0.16    -0.01   0.01  -0.03     0.02  -0.00   0.02
    75   6    -0.10  -0.06   0.18    -0.00  -0.01  -0.03     0.04   0.04   0.02
    76   1    -0.10  -0.04   0.13    -0.00  -0.00  -0.05     0.04   0.03   0.06
    77   1    -0.18  -0.11   0.21    -0.01  -0.03  -0.02     0.07   0.09   0.01
    78   1    -0.03  -0.05   0.26     0.00   0.01  -0.01     0.02   0.02  -0.02
    79   6    -0.14   0.03   0.07    -0.00  -0.01  -0.03     0.05   0.03   0.04
    80   1    -0.15   0.03   0.10     0.00  -0.01  -0.03     0.05   0.03   0.05
    81   1    -0.12   0.05   0.02    -0.00  -0.02  -0.03     0.05   0.03   0.05
    82   1    -0.18   0.05   0.09    -0.01  -0.01  -0.03     0.06   0.04   0.03
    83   1    -0.01  -0.01   0.00    -0.01  -0.01  -0.01    -0.01   0.02  -0.00
    84   6     0.00  -0.02  -0.03    -0.02  -0.00  -0.02     0.02  -0.00  -0.05
    85   8     0.02  -0.03  -0.02    -0.01  -0.00  -0.02     0.05   0.01  -0.04
    86   6    -0.00  -0.02  -0.06    -0.02  -0.01  -0.02     0.00  -0.04  -0.07
    87   1    -0.01  -0.01  -0.10    -0.03  -0.00  -0.06    -0.03  -0.05  -0.07
    88   1     0.02  -0.05  -0.07    -0.02  -0.05  -0.01     0.02  -0.05  -0.08
[...]
 578,0.00029903,0.00025804,-0.00021436,0.00070614,0.00002684,0.00118930
 ,-0.00149652,0.00066200,0.00008894,-0.00021464,-0.00012143,-0.00001648
 ,-0.00005324,0.00007083,0.00001365,0.00001024,-0.00000549,0.00000790,0
 .00001081,0.00006558,0.00020530,-0.00034745,-0.00068118,0.00018340,0.0
 0120645,0.00039628,0.00009601,-0.00022891,-0.00033792,-0.00002527,-0.0
 0000594,-0.00000846,0.00003664,-0.00000890,-0.00000118,-0.00001509,-0.
 00000482,-0.00000118,0.00002367,-0.00002815,0.00001418,-0.00000747,0.0
 0000394,0.00000270,0.00000925,0.00012254,-0.00000425,-0.00000496,-0.00
 002132,0.00001669,0.00001302,-0.00000554,0.00000925,0.00002862,-0.0000
 2936,0.00001117,0.00008781,-0.00011124,-0.00010933,-0.00002708,0.00006
 498,-0.00000738,0.00000124,-0.00006522,-0.00006336,0.00003694,0.000010
 23,0.00006146,0.00003856,-0.00009848,-0.00004131,0.00002192,-0.0000028
 5,0.00006515,-0.00000378,-0.00005264,-0.00006803,-0.00005094,0.0000284
 1,0.00004207,-0.00005514,0.00028995,0.00023683,-0.00108513,0.00037129,
 -0.00151849,-0.00002980,-0.00007182,-0.00004351,0.00002820,-0.00006627
 ,-0.00016364,-0.00008867,0.00040774,0.00057061,0.00008332,-0.00005742,
 -0.00015264,0.00031152,0.00070665,-0.00176199,-0.00002277,-0.00010262,
 -0.00014064,-0.00000258,-0.00000590,0.00000244,-0.00000346,0.00000642,
 -0.00000681,0.00000571,-0.00000566,-0.00000161,0.00000184,0.00000623,0
 .00001349,-0.00000531,-0.00000570,-0.00000465,-0.00000030,0.00000582,-
 0.00000672,0.00000573,0.00000635,0.00001340,0.00000192,-0.00000581,-0.
 00000068,-0.00000505,0.00000556,0.00000344,0.00000444,0.00000715,0.000
 00005,0.00000254,-0.00001050,0.00001579,0.00000152,-0.00000371,-0.0000
 1412,-0.00001261,0.00000326,-0.00000380,0.00000058,0.00000259,0.000000
 51,0.00000143,-0.00000165,-0.00000957,0.00001100,-0.00000703,0.0000125
 4,-0.00008281,0.00009864,0.00007191,-0.00007208,-0.00013969,-0.0004189
 8,-0.00007716,0.00002001,0.00036966,-0.00000262,0.00002472,0.00000848,
 -0.00000379,-0.00000234,-0.00001151,0.00002098,0.00000872,0.00001390,-
 0.00000050,0.00014568,-0.00023685,-0.00005788,-0.00003178,0.00014356,-
 0.00007520,-0.00005215,-0.00010992,0.00012602,-0.00005115,0.00022888,0
 .00003709,-0.00001226,-0.00006919,-0.00001916,-0.00001596,0.00003708,-
 0.00000808,0.00002700,-0.00000221,0.00001739,-0.00000558,-0.00000433,0
 .00001368,0.00000704,-0.00001467,-0.00000230,-0.00000120,0.00001966,0.
 00000462,-0.00000485,-0.00000036,-0.00003584,0.00000204,-0.00000762,0.
 00001547,0.00000132,0.00001339,0.00000837,-0.00000005,-0.00000920,0.00
 000334,-0.00000046,-0.00001201,-0.00000399,0.00000451,0.00001574,0.000
 00840,-0.00000478,0.00000071,-0.00002543,0.00000260,-0.00000413,0.0000
 1044,0.00000001,0.00001031,0.00001055,-0.00000373,-0.00000706,-0.00000
 245,-0.00000479,0.00000108,0.00025702,-0.00020715,-0.00017571,-0.00006
 844,0.00009298,0.00001037,-0.00009573,0.00002830,0.00002001,-0.0000374
 9,0.00006344,0.00012006,-0.09518168,0.04697972,-0.23377264,0.00892259,
 0.02858504,-0.07179897,0.13334836,-0.05433315,0.36459212,0.00038773,-0
 .00018644,0.00003603,-0.00006028,0.00001570,-0.00008589,-0.00007202,0.
 00012494,0.00017083,0.00011334,-0.00009413,-0.00004878,-0.00019260,0.0
 0016784,-0.00000012,0.00027481,0.00020431,0.00076100,-0.00087369,0.000
 92679,-0.00257999,0.01004332,0.01945350,0.00750351,-0.00074569,0.00122
 022,-0.00076373,0.00076915,-0.00027775,0.00065488,-0.00001653,-0.00000
 414,0.00000724,-0.00001293,0.00000004,-0.00000328,0.00003199,-0.000024
 03,0.00002853,-0.00010808,0.00030637,-0.00009982,-0.00033015,0.0005908
 6,0.00089598,0.00002210,-0.00005543,-0.00004731,-0.00013842,0.00012950
 ,0.00014133,-0.00165960,0.00013167,0.00092012,0.00027697,-0.00004700,-
 0.00011571,0.00081528,-0.00000545,-0.00032087,0.00028474,-0.00021163,0
 .00015067,0.00004635,0.00019907,0.00001412,-0.00059874,0.00039196,-0.0
 0030471,-0.00094446,-0.00008893,0.00016669,-0.00011697,-0.00029166,-0.
 00009996,0.00011591,0.00018687,0.00007396,0.00054814,0.00001356,-0.000
 07930,-0.00014284,-0.00006697,0.00024389,-0.00070980,0.00030409,-0.000
 07396,-0.00004333,-0.00011825,-0.00000297,0.00000454,-0.00004824,-0.00
 000158,-0.00012745,0.00009290,0.00003040,-0.00017777,0.00016199,-0.000
 06320,0.00057196,-0.00040713,0.00022496,0.00009825,-0.00006593,0.00001
 706,-0.00000602,-0.00007034,0.00001285,0.00003122,0.00002881,-0.000009
 93,-0.00004212,0.00004093,-0.00005185,0.00042169,-0.00025458,0.0002068
 6,-0.00006682,0.00011911,0.00009085,-0.00029301,0.00035028,-0.00010562
 ,0.00008228,0.00003913,0.00002054,0.00002581,-0.00001038,-0.00009841,0
 .00001900,0.00001999,-0.00000094,0.00000221,-0.00001063,0.00002599,-0.
 00001328,-0.00003175,-0.00001671,0.00002400,0.00002180,-0.00003036,0.0
 0003427,0.00001927,0.00000142,-0.00000099,-0.00003290,-0.00001433,-0.0
 0000209,-0.00002008,0.00005294,0.00002328,-0.00002023,-0.00000769,-0.0
 0001514,0.00001613,-0.00000206,0.00000311,-0.00001078,-0.00001640,0.00
 002307,-0.00000110,0.00002470,0.00001439,-0.00002080,-0.00000266,0.000
 00818,-0.00000949,0.00002073,-0.00000400,-0.00000760,-0.00001249,-0.00
 000110,0.00001334,0.00000101,-0.00000721,0.00008235,0.00006808,0.00002
 712,-0.00005109,0.00008585,0.00001832,0.00001832,0.00000883,0.00002502
 ,-0.00002073,-0.00004628,0.00003375,0.00010724,0.00018996,0.00003823,-
 0.00002393,-0.00007969,-0.00010407,-0.00006286,-0.00004770,0.00000334,
 -0.00002799,-0.00001734,-0.00000724,0.00000059,0.00000869,0.00000408,0
 .00000644,-0.00000957,0.00000390,0.00000449,-0.00000021,0.00000114,0.0
 0000180,0.00000911,-0.00001413,0.00000224,-0.00000642,0.00001316,0.000
 00514,-0.00000133,0.00000272,-0.00000297,0.00000283,-0.00000260,0.0000
 0530,0.00000063,0.00000009,0.00001772,0.00000112,0.00000138,0.00001380
 ,0.00000391,-0.00000440,-0.00001116,0.00000883,0.00001155,-0.00000387,
 -0.00001660,-0.00000944,0.00002070,-0.00000653,0.00000677,0.00001146,-
 0.00000291,0.00000612,-0.00000495,0.00000420,-0.00000309,-0.00000599,0
 .00000396,-0.00007247,0.00007714,0.00012249,0.00002976,-0.00014369,-0.
 00032329,-0.00014250,0.00010709,0.00027252,-0.00001547,0.00000569,0.00
 001965,-0.00000584,0.00000789,-0.00000197,0.00001184,0.00000188,0.0000
 0440,0.00003470,0.00002181,-0.00016649,-0.00002305,-0.00000377,0.00005
 574,0.00000862,0.00002341,-0.00004841,0.00006146,0.00005291,0.00017141
 ,0.00001534,-0.00002738,-0.00007140,-0.00000659,-0.00001043,0.00002609
 ,0.00000551,0.00001481,-0.00000049,-0.00000586,0.00000263,0.00000024,0
 .00000670,0.00000627,-0.00001529,0.00000352,0.00000001,0.00001177,-0.0
 0001404,-0.00000148,0.00000380,0.00000545,-0.00000322,-0.00000068,0.00
 001267,-0.00000032,0.00000836,-0.00000987,0.00000338,-0.00001421,0.000
 00506,0.00000189,-0.00001236,0.00000135,0.00000168,0.00001103,-0.00000
 990,0.00000117,0.00000228,0.00000122,-0.00000228,0.00000129,0.00001105
 ,0.00000215,0.00000329,-0.00000412,0.00000379,-0.00001186,-0.00000892,
 -0.00000740,0.00000829,0.00026213,-0.00027942,-0.00009539,-0.00007294,
 0.00013486,-0.00002002,-0.00010355,0.00004188,0.00000823,-0.00004339,0
 .00006929,0.00007854,-0.09068726,-0.04192676,-0.01854421,-0.02593560,-
 0.05735396,0.00301650,-0.00784406,-0.02622005,-0.03384629,0.11688343,-
 0.00056782,0.00031010,0.00013120,0.00016959,-0.00003285,0.00024312,0.0
 0019762,-0.00029883,-0.00042271,-0.00024369,0.00024074,0.00016815,0.00
 048678,-0.00044796,-0.00009329,-0.00080534,-0.00015504,-0.00015775,0.0
 0426644,-0.00358796,0.00481559,-0.00747121,-0.04224035,-0.02216156,-0.
 00197903,0.00025059,-0.00301954,0.00111827,-0.00000692,-0.00078331,-0.
 00000292,-0.00000495,-0.00001761,0.00003482,-0.00002370,0.00001102,-0.
 00007324,0.00001706,-0.00000859,-0.00016282,-0.00001812,0.00082224,0.0
 0045471,-0.00148102,0.00126790,0.00016807,-0.00018045,0.00009346,0.000
 26431,-0.00016362,-0.00003208,0.00211211,-0.00083356,-0.00254929,0.000
 06284,0.00010226,0.00033081,-0.00015726,-0.00044235,-0.00027515,-0.000
 21760,0.00021299,-0.00065810,0.00006240,-0.00051369,0.00000489,0.00010
 060,-0.00012469,0.00084235,0.00026442,0.00037606,0.00068124,0.00008625
 ,0.00084255,0.00008411,-0.00005542,-0.00054351,-0.00018201,-0.00035497
 ,-0.00015970,-0.00027412,0.00018058,0.00003500,0.00011881,-0.00001337,
 0.00032609,-0.00010545,0.00003477,0.00027919,0.00005365,-0.00011879,0.
 00024336,0.00004409,0.00023712,-0.00010633,0.00011450,0.00008893,-0.00
 053160,0.00054286,-0.00023412,0.00029383,-0.00099655,0.00003991,-0.000
 05865,0.00002542,0.00001104,-0.00006272,0.00001431,-0.00004319,-0.0000
 0074,-0.00000936,0.00001381,0.00004080,-0.00006124,0.00021168,-0.00010
 677,0.00026996,0.00005802,0.00006042,0.00018777,-0.00007051,0.00026438
 ,-0.00026177,-0.00009673,-0.00007795,-0.00000988,-0.00001363,-0.000028
 28,-0.00008715,-0.00002239,-0.00001041,0.00002430,-0.00000132,0.000025
 76,0.00000727,0.00000423,-0.00003629,-0.00002893,-0.00000062,-0.000023
 16,-0.00005092,-0.00000503,0.00001245,0.00002064,-0.00000802,-0.000040
 72,-0.00004634,0.00002477,-0.00000631,0.00005832,-0.00003153,0.0000202
 4,0.00000994,0.00003270,0.00000905,0.00001033,0.00001692,-0.00000776,-
 0.00000135,-0.00003826,0.00001438,-0.00001663,-0.00001330,-0.00002041,
 -0.00003007,-0.00003036,0.00002173,-0.00002058,0.00001563,-0.00000410,
 -0.00001696,0.00002772,-0.00000489,0.00000771,-0.00003810,0.00008960,-
 0.00005250,0.00002706,-0.00008313,0.00012344,0.00004350,0.00002962,0.0
 0003876,-0.00002659,0.00000865,-0.00009976,0.00007074,0.00013701,-0.00
 003098,0.00000960,-0.00004122,0.00000397,-0.00006766,-0.00014396,0.000
 06753,-0.00001569,0.00003472,-0.00010309,0.00000190,-0.00001958,-0.000
 00415,-0.00000168,0.00001516,0.00000249,0.00001154,-0.00002921,0.00000
 036,-0.00001196,0.00000987,-0.00001181,0.00004349,-0.00001414,-0.00000
 455,-0.00002874,-0.00000006,0.00000883,-0.00001432,0.00001368,-0.00000
 034,0.00001848,-0.00003343,-0.00000600,0.00000890,-0.00002598,-0.00000
 379,-0.00000469,-0.00003668,-0.00001175,0.00000608,0.00002271,-0.00000
 286,-0.00000461,0.00001761,0.00001912,-0.00002467,-0.00002822,-0.00000
 471,-0.00000587,-0.00004223,-0.00000343,0.00001619,0.00001464,0.000001
 55,0.00000222,0.00002266,-0.00000528,0.00009493,-0.00020672,-0.0002958
 0,-0.00031799,-0.00020663,-0.00017035,0.00024391,0.00036912,-0.0000776
 1,0.00002931,-0.00001076,-0.00002834,0.00001699,0.00002999,0.00001434,
 0.00000119,-0.00002867,0.00000257,-0.00032672,-0.00007992,0.00028178,0
 .00004110,0.00002186,-0.00010652,-0.00000131,-0.00000544,0.00004652,0.
 00040438,0.00014903,0.00000083,-0.00001402,-0.00000232,0.00013704,-0.0
 0000335,0.00003511,-0.00004582,-0.00001761,0.00001911,0.00002887,0.000
 01995,-0.00002269,0.00000266,-0.00004063,-0.00007250,0.00005190,-0.000
 01130,0.00001447,0.00000186,0.00003556,0.00003162,-0.00001061,0.000020
 02,0.00000092,-0.00004400,0.00001226,-0.00000778,0.00001639,-0.0000107
 1,-0.00003591,-0.00000426,-0.00002676,-0.00001771,0.00002901,0.0000041
 0,0.00000937,0.00000938,-0.00000225,0.00001845,-0.00000364,0.00004179,
 -0.00000116,-0.00003044,0.00001761,-0.00000486,0.00002364,-0.00003177,
 -0.00000704,-0.00001658,0.00000446,0.00002962,-0.00000478,-0.00084743,
 0.00054682,0.00022484,0.00021393,-0.00028453,0.00003481,0.00038106,-0.
 00004752,-0.00000739,0.00014559,-0.00013958,-0.00016023,-0.03944594,-0
 .26603344,-0.06948059,-0.04453513,-0.03975570,0.00992402,-0.01664412,0
 .00459987,-0.02805798,0.10251930,0.34956476,-0.00013989,0.00002879,0.0
 0012448,0.00008975,-0.00001753,0.00010029,0.00005997,-0.00011035,-0.00
 016549,-0.00009476,0.00009360,0.00007783,0.00016637,-0.00018170,-0.000
 06545,-0.00022970,-0.00003808,0.00011731,0.00004188,-0.00060085,0.0005
 8613,-0.00245731,-0.01574441,0.00424378,-0.00115785,0.00027925,-0.0027
 1257,0.00129495,0.00021438,0.00011160,-0.00000105,0.00000454,-0.000009
 74,0.00001460,-0.00000924,0.00000149,-0.00000025,0.00000996,0.00000687
 ,-0.00039944,0.00027783,0.00058272,0.00023323,0.00002978,0.00153526,0.
 00014188,-0.00012184,-0.00001568,0.00008158,0.00000896,0.00008602,0.00
 104280,0.00038671,-0.00016688,0.00001210,-0.00003995,0.00024045,-0.000
 06519,-0.00016484,0.00002617,0.00008304,-0.00011527,-0.00020213,0.0000
 3128,-0.00020008,0.00002686,-0.00036146,0.00040548,0.00012746,0.000035
 30,0.00017507,0.00005140,0.00001476,0.00031144,0.00000137,-0.00000339,
 -0.00019348,-0.00004908,-0.00010797,-0.00010711,0.00001316,0.00006277,
 0.00003833,-0.00001751,-0.00002886,0.00014097,0.00003453,0.00001473,0.
 00010458,0.00001157,-0.00004222,0.00009081,0.00000865,0.00000951,0.000
 05140,0.00010931,0.00000791,0.00000532,0.00011907,0.00023588,-0.000371
 45,-0.00022879,0.00002567,-0.00008014,-0.00003489,-0.00000047,-0.00002
 664,0.00002517,-0.00001520,-0.00000164,-0.00000345,0.00001457,0.000010
 00,0.00000959,0.00003122,-0.00008063,-0.00021245,0.00003297,0.00016720
 ,0.00025111,0.00010302,-0.00004995,-0.00017708,-0.00005356,-0.00003682
 ,-0.00000792,0.00000342,-0.00001054,-0.00001193,-0.00001563,-0.0000081
 1,0.00000749,0.00000676,0.00000147,0.00000232,0.00000123,-0.00000516,-
 0.00000562,-0.00000130,0.00002413,-0.00001372,-0.00000863,-0.00000482,
 0.00001151,0.00000175,-0.00000844,-0.00001005,0.00001607,-0.00000881,0
 .00001271,0.00001585,-0.00002608,-0.00003020,0.00000351,0.00001938,0.0
 0000162,0.00000402,-0.00002183,-0.00001758,-0.00000435,0.00000850,0.00
 000988,0.00000639,-0.00003404,-0.00002152,-0.00000348,0.00000772,0.000
 01117,0.00000346,-0.00001775,-0.00002498,-0.00000880,0.00000483,0.0000
 1587,-0.00003323,0.00011287,0.00005704,0.00008864,-0.00004694,0.000135
 54,-0.00000037,-0.00001835,-0.00000586,0.00000204,-0.00001573,-0.00007
 183,-0.00000797,0.00016975,0.00023736,0.00001695,-0.00003224,-0.000048
 29,-0.00005725,-0.00012193,-0.00002376,-0.00000954,-0.00002214,-0.0000
 7478,0.00000005,-0.00000722,-0.00000257,-0.00000265,0.00000569,0.00000
 047,0.00000522,-0.00001147,-0.00000017,-0.00000362,0.00000467,-0.00000
 128,0.00001353,-0.00000561,-0.00000169,-0.00001045,0.00000092,-0.00000
 045,-0.00000339,0.00000753,0.00000325,0.00000699,-0.00001284,-0.000001
 82,0.00000251,-0.00000989,-0.00000108,-0.00000154,-0.00001278,-0.00000
 498,0.00000395,0.00000789,0.00000090,-0.00000360,0.00000534,0.00000725
 ,-0.00001117,-0.00001132,-0.00000084,-0.00000280,-0.00001512,-0.000000
 79,0.00000391,0.00000518,-0.00000320,0.00000537,0.00000702,0.00000110,
 0.00001861,-0.00003039,-0.00006621,-0.00012239,-0.00006734,-0.00008310
 ,0.00009166,0.00009604,0.00000838,0.00001062,0.00000192,-0.00001462,0.
 00000489,0.00000628,0.00000347,0.00000301,-0.00000806,0.00000417,-0.00
 009468,0.00002331,0.00004690,-0.00000324,-0.00000403,0.00000374,-0.000
 02770,-0.00001836,-0.00000860,0.00013249,0.00001605,0.00003165,0.00000
 279,0.00000338,0.00003826,-0.00000678,0.00000764,-0.00000838,-0.000006
 70,0.00000850,0.00000657,0.00001177,-0.00001112,0.00000038,-0.00001045
 ,-0.00002192,0.00001651,-0.00000493,0.00000493,0.00000408,0.00001660,0
 .00000832,-0.00000484,-0.00000948,0.00000185,-0.00001971,0.00000689,-0
 .00000212,0.00000865,0.00000267,-0.00001171,-0.00000070,-0.00000821,-0
 .00000548,0.00000892,-0.00000066,0.00000435,0.00000634,0.00000546,0.00
 000314,-0.00000175,0.00000139,0.00000135,-0.00001300,0.00000703,-0.000
 00207,0.00001104,-0.00000415,-0.00000445,-0.00000444,0.00000288,0.0000
 0956,-0.00000310,-0.00029865,0.00021090,0.00005021,0.00007744,-0.00011
 139,0.00002217,0.00013508,-0.00001986,0.00000327,0.00004985,-0.0000486
 3,-0.00004120,-0.01885346,-0.07277515,-0.10328894,0.01098125,0.0222672
 7,0.01641896,-0.03260252,-0.04314464,-0.04261194,0.04174657,0.10916578
 ,0.12477983\\0.00000128,-0.00000248,-0.00000080,-0.00000150,0.00000339
 ,0.00000505,-0.00000526,0.00000019,0.00000291,-0.00000493,0.00000234,0
 .00000197,-0.00000301,0.00000154,0.00000039,-0.00000763,0.00000581,0.0
 0000261,0.00000762,-0.00000493,0.00000425,-0.00000821,0.00000241,-0.00
 001036,0.00000547,-0.00000765,-0.00000248,-0.00000774,0.00000455,-0.00
 000368,-0.00000014,-0.00000015,0.00000182,0.00000175,-0.00000009,0.000
 00351,-0.00000153,0.00000180,0.00000307,-0.00000186,0.00000042,-0.0000
 0342,-0.00000253,0.00000422,0.00000373,0.00000011,0.00000069,0.0000024
 0,0.00000257,-0.00000279,0.00000007,-0.00000603,0.00000538,-0.00000110
 ,0.00000213,-0.00000064,0.00000211,-0.00000054,0.00000013,-0.00000003,
 0.00000365,-0.00000109,0.00000110,-0.00000076,-0.00000079,0.00000059,0
 .00000077,-0.00000161,-0.00000421,-0.00000067,-0.00000063,-0.00000375,
 0.00000159,0.00000148,0.00000269,0.00000045,-0.00000220,-0.00000182,-0
 .00000149,-0.00000166,0.00000075,0.00000210,0.00000668,-0.00000582,0.0
 0000197,0.00000321,-0.00000516,0.00000161,0.00000055,0.00000319,-0.000
 00299,0.00000004,-0.00000070,0.00000444,-0.00000223,-0.00000608,0.0000
 0057,-0.00000023,-0.00000312,0.00000203,-0.00000064,-0.00000115,-0.000
 00516,-0.00000330,-0.00000144,-0.00000166,0.00000273,-0.00000079,0.000
 00017,0.00000011,-0.00000140,-0.00000048,0.00000078,-0.00000071,-0.000
 00245,0.00000393,0.00000326,-0.00000021,-0.00000028,-0.00000348,-0.000
 00232,-0.00000298,-0.00000551,0.00000003,-0.00000027,-0.00000261,-0.00
 000225,-0.00000519,-0.00000342,-0.00000020,0.00000020,-0.00000124,0.00
 000144,0.00000034,0.00000070,0.00000007,-0.00000025,-0.00000165,-0.000
 00092,-0.00000650,-0.00000065,0.00000158,0.00000073,-0.00000336,0.0000
 0020,-0.00000046,-0.00000239,0.00000066,0.00000332,-0.00000225,-0.0000
 0093,-0.00000069,-0.00000394,0.00000111,-0.00000080,-0.00000065,0.0000
 0231,-0.00000119,-0.00000135,0.00000255,-0.00000087,-0.00000126,0.0000
 0385,-0.00000407,-0.00000306,0.00000142,-0.00000080,-0.00000168,0.0000
 0126,0.00000096,0.00000094,0.00000146,-0.00000064,-0.00000085,0.000000
 46,0.00000299,-0.00000003,0.00000075,-0.00000263,-0.00000494,0.0000004
 7,-0.00000172,-0.00000203,0.00000064,-0.00000008,-0.00000352,0.0000014
 8,-0.00000330,0.00000191,0.00000155,-0.00000100,-0.00000067,0.00000067
 ,-0.00000074,-0.00000343,-0.00000055,0.00000266,-0.00000457,0.00000780
 ,0.00000220,-0.00000126,-0.00000262,-0.00000028,0.00000291,0.00000034,
 -0.00000106,0.00000068,0.00000051,-0.00000072,-0.00000032,0.00000027,-
 0.00000086,0.00000331,0.00000179,0.00000038,0.00000112,0.00000060,-0.0
 0000044,-0.00000008,0.00000196,-0.00000166,0.00000078,0.00000732,0.000
 00143,0.00001019,-0.00000065,0.00000039,0.00000094,-0.00000342,0.00000
 031,-0.00000528,-0.00000225,-0.00000117,0.00000286,-0.00000178,0.00000
 265,0.00000364,-0.00000046,-0.00000080,0.00000067,0.00000111,-0.000000
 84,-0.00000011,-0.00000099,-0.00000014,-0.00000075,0.00000064,-0.00000
 029,-0.00000058,-0.00000841,0.00000408,0.00000550,0.00000272,-0.000004
 10,-0.00000433,0.00000071,-0.00000510,0.00000129,-0.00000054,0.0000022
 2,0.00000275,0.00000017,0.00000075,0.00000304,-0.00000326,0.00000202,-
 0.00000337,0.00000138,-0.00000147,0.00000296,0.00000056,-0.00000064,0.
 00000015,0.00000803,-0.00000163,0.00000401,0.00000150,0.00000104,0.000
 00426,0.00000107,-0.00000041,0.00000019,0.00000049,-0.00000092,0.00000
 061,0.00000042,-0.00000015,0.00000152,0.00000176,0.00000474,0.00000256
 ,0.00000137,-0.00000083,0.00000287,0.00000002,-0.00000080,0.00000150,0
 .00000113,0.00000212,-0.00000344,-0.00000007,0.00000017,0.00000314,0.0
 0000068,-0.00000032,0.00000169,0.00000077,-0.00000658,0.00000751,-0.00
 000022,-0.00000072,-0.00000030,0.00000130,0.00000012,0.00000150,0.0000
 0722,0.00000302,0.00000959,-0.00000234,-0.00000124,-0.00000465,-0.0000
 0338,0.00000138,0.00000002,-0.00000048,0.00000025,0.00000065,0.0000071
 0,0.00000471,-0.00000051,-0.00000180,0.00000032,0.00000742,-0.00000589
 ,-0.00000190,0.00000783,-0.00000075,0.00000006,0.00000821,-0.00000166,
 0.00000728,-0.00000281,-0.00000529,0.00000067,-0.00000343,-0.00000059,
 -0.00000085,-0.00000366,-0.00000421,-0.00000237,-0.00000547\\\@
 The archive entry for this job was punched.


 KINETICS       FACT
 ---------  =  -------
 MECHANISM     FICTION
 Job cpu time:       2 days  8 hours 10 minutes 34.2 seconds.
 Elapsed time:       0 days  3 hours 34 minutes 41.7 seconds.
 File lengths (MBytes):  RWF=  11754 Int=      0 D2E=      0 Chk=     62 Scr=      1
 Normal termination of Gaussian 16 at Sat Dec  7 22:22:20 2024.
