/mnt/lustre/scratch/nvme/SLURM/9663622/usccqdma.WAG20QqTBZ
OMP_STACKSIZE=0m
GAUSS_PDEF=16
GAUSS_MDEF=65536MB
GAUSS_RDEF=SCF=Direct
 Entering Gaussian System, Link 0=g16.exe
 Initial command:
 /opt/cesga/2020/software/Core/g16/c1/l1.exe "/mnt/lustre/scratch/nvme/SLURM/9663622/usccqdma.WAG20QqTBZ/Gau-142637.inp" -scrdir="/mnt/lustre/scratch/nvme/SLURM/9663622/usccqdma.WAG20QqTBZ/"
 Default is to use a total of  16 processors:
                               16 via shared-memory
                                1 via Linda
 Entering Link 1 = /opt/cesga/2020/software/Core/g16/c1/l1.exe PID=    142663.
  
 Copyright (c) 1988-2019, Gaussian, Inc.  All Rights Reserved.
  
 This is part of the Gaussian(R) 16 program.  It is based on
 the Gaussian(R) 09 system (copyright 2009, Gaussian, Inc.),
 the Gaussian(R) 03 system (copyright 2003, Gaussian, Inc.),
 the Gaussian(R) 98 system (copyright 1998, Gaussian, Inc.),
 the Gaussian(R) 94 system (copyright 1995, Gaussian, Inc.),
 the Gaussian 92(TM) system (copyright 1992, Gaussian, Inc.),
 the Gaussian 90(TM) system (copyright 1990, Gaussian, Inc.),
 the Gaussian 88(TM) system (copyright 1988, Gaussian, Inc.),
 the Gaussian 86(TM) system (copyright 1986, Carnegie Mellon
 University), and the Gaussian 82(TM) system (copyright 1983,
 Carnegie Mellon University). Gaussian is a federally registered
 trademark of Gaussian, Inc.
  
 This software contains proprietary and confidential information,
 including trade secrets, belonging to Gaussian, Inc.
  
 This software is provided under written license and may be
 used, copied, transmitted, or stored only in accord with that
 written license.
  
 The following legend is applicable only to US Government
 contracts under FAR:
  
                    RESTRICTED RIGHTS LEGEND
  
 Use, reproduction and disclosure by the US Government is
 subject to restrictions as set forth in subparagraphs (a)
 and (c) of the Commercial Computer Software - Restricted
 Rights clause in FAR 52.227-19.
  
 Gaussian, Inc.
 340 Quinnipiac St., Bldg. 40, Wallingford CT 06492
  
  
 ---------------------------------------------------------------
 Warning -- This program may not be used in any manner that
 competes with the business of Gaussian, Inc. or will provide
 assistance to any competitor of Gaussian, Inc.  The licensee
 of this program is prohibited from giving any competitor of
 Gaussian, Inc. access to this program.  By using this program,
 the user acknowledges that Gaussian, Inc. is engaged in the
 business of creating and licensing software in the field of
 computational chemistry and represents and warrants to the
 licensee that it is not a competitor of Gaussian, Inc. and that
 it will not use this program in any manner prohibited above.
 ---------------------------------------------------------------
  

 Cite this work as:
 Gaussian 16, Revision C.01,
 M. J. Frisch, G. W. Trucks, H. B. Schlegel, G. E. Scuseria, 
 M. A. Robb, J. R. Cheeseman, G. Scalmani, V. Barone, 
 G. A. Petersson, H. Nakatsuji, X. Li, M. Caricato, A. V. Marenich, 
 J. Bloino, B. G. Janesko, R. Gomperts, B. Mennucci, H. P. Hratchian, 
 J. V. Ortiz, A. F. Izmaylov, J. L. Sonnenberg, D. Williams-Young, 
 F. Ding, F. Lipparini, F. Egidi, J. Goings, B. Peng, A. Petrone, 
 T. Henderson, D. Ranasinghe, V. G. Zakrzewski, J. Gao, N. Rega, 
 G. Zheng, W. Liang, M. Hada, M. Ehara, K. Toyota, R. Fukuda, 
 J. Hasegawa, M. Ishida, T. Nakajima, Y. Honda, O. Kitao, H. Nakai, 
 T. Vreven, K. Throssell, J. A. Montgomery, Jr., J. E. Peralta, 
 F. Ogliaro, M. J. Bearpark, J. J. Heyd, E. N. Brothers, K. N. Kudin, 
 V. N. Staroverov, T. A. Keith, R. Kobayashi, J. Normand, 
 K. Raghavachari, A. P. Rendell, J. C. Burant, S. S. Iyengar, 
 J. Tomasi, M. Cossi, J. M. Millam, M. Klene, C. Adamo, R. Cammi, 
 J. W. Ochterski, R. L. Martin, K. Morokuma, O. Farkas, 
 J. B. Foresman, and D. J. Fox, Gaussian, Inc., Wallingford CT, 2019.
 
 ******************************************
 Gaussian 16:  ES64L-G16RevC.01  3-Jul-2019
                 7-Dec-2024 
 ******************************************
 Default route: SCF=Direct
 ----------------------------------------------------
 # m06/genecp scf=tight int=ultrafine 5d freq=noraman
 ----------------------------------------------------
 1/10=4,30=1,38=1/1,3;
 2/12=2,17=6,18=5,40=1/2;
 3/5=7,8=1,11=2,16=1,17=8,25=1,30=1,71=2,74=-54,75=-5,140=1/1,2,3;
 4//1;
 5/5=2,32=2,38=5,98=1/2;
 8/6=4,10=90,11=11/1;
 11/6=1,8=1,9=11,15=111,16=1/1,2,10;
 10/6=1/2;
 6/7=2,8=2,9=2,10=2,28=1/1;
 7/8=1,10=1,25=1/1,2,3,16;
 1/10=4,30=1/3;
 99//99;
 ------
 OPT-TS
 ------
 Symbolic Z-matrix:
 Charge =  0 Multiplicity = 1
 C                     1.94294  -0.35897   1.97087 
 C                     3.13238  -0.18179  -0.00926 
 C                     4.339    -0.0901    0.66713 
 C                     4.3327   -0.15312   2.05603 
 C                     3.12289  -0.29899   2.71097 
 C                     0.61082  -0.487     2.58386 
 C                    -1.67253  -0.65265   2.20034 
 C                    -1.93549  -0.75349   3.55784 
 C                    -0.87423  -0.7182    4.45689 
 C                     0.41178  -0.59526   3.96152 
 H                     3.0835   -0.14909  -1.09774 
 H                     5.26458  -0.09446   2.61336 
 H                     3.1031   -0.36318   3.79485 
 H                    -2.46452  -0.70754   1.45542 
 H                    -1.05384  -0.80178   5.52617 
 H                     1.25482  -0.58864   4.64643 
 N                     1.9694   -0.29736   0.6264 
 N                    -0.4331   -0.50531   1.72729 
 Ir                    0.03045  -0.31257  -0.40681 
 O                    -2.24056   1.42113  -1.76065 
 O                    -2.79666  -1.44583  -0.74004 
 O                     0.63015   2.61134  -1.62374 
 B                    -1.60425  -1.11905  -1.38089 
 B                    -1.49742   1.10991  -0.63037 
 B                     0.53282   1.77813  -0.5295 
 O                     1.18598   2.32399   0.56556 
 O                    -2.03706   1.74573   0.48881 
 C                    -3.31485   2.29511   0.12697 
 C                    -3.17889   2.45444  -1.41757 
 C                     1.62215   3.61194  -1.32986 
 C                     1.61402   3.65277   0.22782 
 C                    -3.52874  -2.36482  -1.57244 
 C                    -2.88452  -2.14102  -2.97974 
 O                    -1.58373  -1.62757  -2.66196 
 C                    -4.46828   2.24442  -2.18605 
 H                    -4.89733   1.2515   -2.00676 
 H                    -5.21513   2.99909  -1.90001 
 H                    -4.27956   2.34499  -3.26282 
 C                    -2.55264   3.77691  -1.83589 
 H                    -2.28473   3.71807  -2.89829 
 H                    -3.23967   4.62114  -1.68941 
 H                    -1.62722   3.96469  -1.28012 
 C                    -4.37504   1.28414   0.5456 
 H                    -5.39128   1.65132   0.34844 
 H                    -4.23401   0.3248    0.03059 
 H                    -4.28731   1.10671   1.62653 
 C                    -3.52491   3.59116   0.8851 
 H                    -4.46612   4.07164   0.58141 
 H                    -3.58367   3.38192   1.96087 
 H                    -2.70503   4.30013   0.72437 
 C                    -3.29979  -3.75835  -1.00298 
 H                    -2.24035  -4.04269  -1.03176 
 H                    -3.61739  -3.76562   0.04754 
 H                    -3.8783   -4.52001  -1.54235 
 C                    -5.00593  -2.03178  -1.49106 
 H                    -5.20756  -0.99167  -1.77336 
 H                    -5.59058  -2.68888  -2.15074 
 H                    -5.36226  -2.17923  -0.4628 
 C                    -2.71498  -3.40457  -3.80122 
 H                    -2.07526  -4.1362   -3.29329 
 H                    -3.68742  -3.87292  -4.01115 
 H                    -2.24463  -3.15574  -4.76089 
 C                    -3.58352  -1.07436  -3.80892 
 H                    -2.98138  -0.88124  -4.70533 
 H                    -4.58808  -1.38574  -4.1257 
 H                    -3.64855  -0.13301  -3.25108 
 C                     2.96692   3.90429   0.86661 
 H                     3.36938   4.88159   0.56346 
 H                     2.86174   3.90778   1.95939 
 H                     3.69724   3.1304    0.60104 
 C                     0.58459   4.61142   0.80751 
 H                     0.51207   4.43888   1.88848 
 H                     0.85832   5.66166   0.63998 
 H                    -0.40995   4.42991   0.37971 
 C                     1.23583   4.91035  -2.00926 
 H                     1.2373    4.76979  -3.09749 
 H                     0.23569   5.24775  -1.71641 
 H                     1.95657   5.70471  -1.76729 
 C                     2.93635   3.10539  -1.9102 
 H                     2.79368   2.90239  -2.97856 
 H                     3.74738   3.83736  -1.7986 
 H                     3.25418   2.17012  -1.42989 
 H                     0.49223  -0.24105  -1.93805 
 C                     2.75671  -3.17729  -0.26803 
 O                     2.75301  -3.16059   0.96281 
 C                     4.02381  -3.52361  -1.03764 
 H                     3.86391  -4.46497  -1.58775 
 H                     4.20704  -2.76465  -1.81413 
 C                     0.41322  -2.49152  -0.36087 
 H                    -0.38646  -3.09354  -0.81213 
 H                     0.49802  -2.79279   0.68873 
 N                     1.65493  -2.88314  -1.01471 
 C                     1.66823  -2.86796  -2.46427 
 H                     2.13956  -3.77038  -2.87334 
 H                     0.63378  -2.82     -2.82064 
 H                     2.18846  -1.98628  -2.87235 
 C                     5.22758  -3.64824  -0.12435 
 H                     5.43482  -2.70027   0.38952 
 H                     5.05204  -4.39846   0.65376 
 C                     5.59679   0.1712   -0.09949 
 F                     5.73221   1.48107  -0.35792 
 F                     6.67854  -0.21442   0.58094 
 F                     5.60199  -0.46077  -1.27653 
 C                    -3.35447  -0.82676   4.02853 
 F                    -3.87837   0.40045   4.15936 
 F                    -4.12742  -1.49402   3.16973 
 F                    -3.44708  -1.4239    5.22063 
 H                     6.12221  -3.92849  -0.69336 
 

 GradGradGradGradGradGradGradGradGradGradGradGradGradGradGradGradGradGrad
 Berny optimization.
 Initialization pass.
 Trust Radius=3.00D-01 FncErr=1.00D-07 GrdErr=1.00D-07 EigMax=2.50D+02 EigMin=1.00D-04
 Number of steps in this run=      2 maximum allowed number of steps=      2.
 GradGradGradGradGradGradGradGradGradGradGradGradGradGradGradGradGradGrad

 Stoichiometry    C35H53B3F6IrN3O7
 Framework group  C1[X(C35H53B3F6IrN3O7)]
 Deg. of freedom   318
 Full point group                 C1      NOp   1
 Largest Abelian subgroup         C1      NOp   1
 Largest concise Abelian subgroup C1      NOp   1
                         Standard orientation:                         
 ---------------------------------------------------------------------
 Center     Atomic      Atomic             Coordinates (Angstroms)
 Number     Number       Type             X           Y           Z
 ---------------------------------------------------------------------
      1          6           0        1.942939   -0.358969    1.970869
      2          6           0        3.132379   -0.181789   -0.009261
      3          6           0        4.338999   -0.090099    0.667129
      4          6           0        4.332699   -0.153119    2.056029
      5          6           0        3.122889   -0.298989    2.710969
      6          6           0        0.610819   -0.486999    2.583859
      7          6           0       -1.672531   -0.652649    2.200339
      8          6           0       -1.935491   -0.753489    3.557839
      9          6           0       -0.874231   -0.718199    4.456889
     10          6           0        0.411779   -0.595259    3.961519
     11          1           0        3.083499   -0.149089   -1.097741
     12          1           0        5.264579   -0.094459    2.613359
     13          1           0        3.103099   -0.363179    3.794849
     14          1           0       -2.464521   -0.707539    1.455419
     15          1           0       -1.053841   -0.801779    5.526169
     16          1           0        1.254819   -0.588639    4.646429
     17          7           0        1.969399   -0.297359    0.626399
     18          7           0       -0.433101   -0.505309    1.727289
     19         77           0        0.030449   -0.312569   -0.406811
     20          8           0       -2.240561    1.421131   -1.760651
     21          8           0       -2.796661   -1.445829   -0.740041
     22          8           0        0.630149    2.611341   -1.623741
     23          5           0       -1.604251   -1.119049   -1.380891
     24          5           0       -1.497421    1.109911   -0.630371
     25          5           0        0.532819    1.778131   -0.529501
     26          8           0        1.185979    2.323991    0.565559
     27          8           0       -2.037061    1.745731    0.488809
     28          6           0       -3.314851    2.295111    0.126969
     29          6           0       -3.178891    2.454441   -1.417571
     30          6           0        1.622149    3.611941   -1.329861
     31          6           0        1.614019    3.652771    0.227819
     32          6           0       -3.528741   -2.364819   -1.572441
     33          6           0       -2.884521   -2.141019   -2.979741
     34          8           0       -1.583731   -1.627569   -2.661961
     35          6           0       -4.468281    2.244421   -2.186051
     36          1           0       -4.897331    1.251501   -2.006761
     37          1           0       -5.215131    2.999091   -1.900011
     38          1           0       -4.279561    2.344991   -3.262821
     39          6           0       -2.552641    3.776911   -1.835891
     40          1           0       -2.284731    3.718071   -2.898291
     41          1           0       -3.239671    4.621141   -1.689411
     42          1           0       -1.627221    3.964691   -1.280121
     43          6           0       -4.375041    1.284141    0.545599
     44          1           0       -5.391281    1.651321    0.348439
     45          1           0       -4.234011    0.324801    0.030589
     46          1           0       -4.287311    1.106711    1.626529
     47          6           0       -3.524911    3.591161    0.885099
     48          1           0       -4.466121    4.071641    0.581409
     49          1           0       -3.583671    3.381921    1.960869
     50          1           0       -2.705031    4.300131    0.724369
     51          6           0       -3.299791   -3.758349   -1.002981
     52          1           0       -2.240351   -4.042689   -1.031761
     53          1           0       -3.617391   -3.765619    0.047539
     54          1           0       -3.878301   -4.520009   -1.542351
     55          6           0       -5.005931   -2.031779   -1.491061
     56          1           0       -5.207561   -0.991669   -1.773361
     57          1           0       -5.590581   -2.688879   -2.150741
     58          1           0       -5.362261   -2.179229   -0.462801
     59          6           0       -2.714981   -3.404569   -3.801221
     60          1           0       -2.075261   -4.136199   -3.293291
     61          1           0       -3.687421   -3.872919   -4.011151
     62          1           0       -2.244631   -3.155739   -4.760891
     63          6           0       -3.583521   -1.074359   -3.808921
     64          1           0       -2.981381   -0.881239   -4.705331
     65          1           0       -4.588081   -1.385739   -4.125701
     66          1           0       -3.648551   -0.133009   -3.251081
     67          6           0        2.966919    3.904291    0.866609
     68          1           0        3.369379    4.881591    0.563459
     69          1           0        2.861739    3.907781    1.959389
     70          1           0        3.697239    3.130401    0.601039
     71          6           0        0.584589    4.611421    0.807509
     72          1           0        0.512069    4.438881    1.888479
     73          1           0        0.858319    5.661661    0.639979
     74          1           0       -0.409951    4.429911    0.379709
     75          6           0        1.235829    4.910351   -2.009261
     76          1           0        1.237299    4.769791   -3.097491
     77          1           0        0.235689    5.247751   -1.716411
     78          1           0        1.956569    5.704711   -1.767291
     79          6           0        2.936349    3.105391   -1.910201
     80          1           0        2.793679    2.902391   -2.978561
     81          1           0        3.747379    3.837361   -1.798601
     82          1           0        3.254179    2.170121   -1.429891
     83          1           0        0.492229   -0.241049   -1.938051
     84          6           0        2.756709   -3.177289   -0.268031
     85          8           0        2.753009   -3.160589    0.962809
     86          6           0        4.023809   -3.523609   -1.037641
     87          1           0        3.863909   -4.464969   -1.587751
     88          1           0        4.207039   -2.764649   -1.814131
     89          6           0        0.413219   -2.491519   -0.360871
     90          1           0       -0.386461   -3.093539   -0.812131
     91          1           0        0.498019   -2.792789    0.688729
     92          7           0        1.654929   -2.883139   -1.014711
     93          6           0        1.668229   -2.867959   -2.464271
     94          1           0        2.139559   -3.770379   -2.873341
     95          1           0        0.633779   -2.819999   -2.820641
     96          1           0        2.188459   -1.986279   -2.872351
     97          6           0        5.227579   -3.648239   -0.124351
     98          1           0        5.434819   -2.700269    0.389519
     99          1           0        5.052039   -4.398459    0.653759
    100          6           0        5.596789    0.171201   -0.099491
    101          9           0        5.732209    1.481071   -0.357921
    102          9           0        6.678539   -0.214419    0.580939
    103          9           0        5.601989   -0.460769   -1.276531
    104          6           0       -3.354471   -0.826759    4.028529
    105          9           0       -3.878371    0.400451    4.159359
    106          9           0       -4.127421   -1.494019    3.169729
    107          9           0       -3.447081   -1.423899    5.220629
    108          1           0        6.122209   -3.928489   -0.693361
 ---------------------------------------------------------------------
 Rotational constants (GHZ):           0.0634231           0.0420109           0.0401630
 General basis read from cards:  (5D, 7F)
 ======================================================================================================
                                       Pseudopotential Parameters
 ======================================================================================================
  Center     Atomic      Valence      Angular      Power
  Number     Number     Electrons     Momentum     of R      Exponent        Coefficient   SO-Coeffient
 ======================================================================================================
    1          6
                                   No pseudopotential on this center.
    2          6
                                   No pseudopotential on this center.
    3          6
                                   No pseudopotential on this center.
    4          6
                                   No pseudopotential on this center.
    5          6
                                   No pseudopotential on this center.
    6          6
                                   No pseudopotential on this center.
    7          6
                                   No pseudopotential on this center.
    8          6
                                   No pseudopotential on this center.
    9          6
                                   No pseudopotential on this center.
   10          6
                                   No pseudopotential on this center.
   11          1
                                   No pseudopotential on this center.
   12          1
                                   No pseudopotential on this center.
   13          1
                                   No pseudopotential on this center.
   14          1
                                   No pseudopotential on this center.
   15          1
                                   No pseudopotential on this center.
   16          1
                                   No pseudopotential on this center.
   17          7
                                   No pseudopotential on this center.
   18          7
                                   No pseudopotential on this center.
   19         77           17
                                      G and up 
                                                     1      823.5880147       -0.15780140    0.00000000
                                                     2      364.6613336    -1517.52704460    0.00000000
                                                     2       55.7082801     -316.53065290    0.00000000
                                                     2       12.0464544      -91.88809410    0.00000000
                                                     2        3.5120610       -9.22417730    0.00000000
                                      S - G
                                                     0      188.0490770        3.15780140    0.00000000
                                                     1      340.4194712       26.83225770    0.00000000
                                                     2      128.2373673      800.42500070    0.00000000
                                                     2       33.8644961      369.40506830    0.00000000
                                                     2        4.7560005      242.41718990    0.00000000
                                                     2        3.9649974     -118.21732820    0.00000000
                                      P - G
                                                     0      289.7291139        2.15780140    0.00000000
                                                     1       87.4633789       61.96786100    0.00000000
                                                     2       30.4363766      269.05819860    0.00000000
                                                     2        4.0553412      231.16547930    0.00000000
                                                     2        3.5525341     -133.69526670    0.00000000
                                      D - G
                                                     0      136.4017106        3.15780140    0.00000000
                                                     1       95.0776925       45.93498030    0.00000000
                                                     2       49.2258410      359.03446680    0.00000000
                                                     2       15.0874145      176.47401190    0.00000000
                                                     2        4.0405764       54.51552860    0.00000000
                                      F - G
                                                     0      127.3507908        3.95461970    0.00000000
                                                     1       66.2364374       52.97736550    0.00000000
                                                     2       34.4299229      274.86433830    0.00000000
                                                     2       10.1995721      137.20473380    0.00000000
                                                     2        2.5409702       14.86333050    0.00000000
   20          8
                                   No pseudopotential on this center.
   21          8
                                   No pseudopotential on this center.
   22          8
                                   No pseudopotential on this center.
   23          5
                                   No pseudopotential on this center.
   24          5
                                   No pseudopotential on this center.
   25          5
                                   No pseudopotential on this center.
   26          8
                                   No pseudopotential on this center.
   27          8
                                   No pseudopotential on this center.
   28          6
                                   No pseudopotential on this center.
   29          6
                                   No pseudopotential on this center.
   30          6
                                   No pseudopotential on this center.
   31          6
                                   No pseudopotential on this center.
   32          6
                                   No pseudopotential on this center.
   33          6
                                   No pseudopotential on this center.
   34          8
                                   No pseudopotential on this center.
   35          6
                                   No pseudopotential on this center.
   36          1
                                   No pseudopotential on this center.
   37          1
                                   No pseudopotential on this center.
   38          1
                                   No pseudopotential on this center.
   39          6
                                   No pseudopotential on this center.
   40          1
                                   No pseudopotential on this center.
   41          1
                                   No pseudopotential on this center.
   42          1
                                   No pseudopotential on this center.
   43          6
                                   No pseudopotential on this center.
   44          1
                                   No pseudopotential on this center.
   45          1
                                   No pseudopotential on this center.
   46          1
                                   No pseudopotential on this center.
   47          6
                                   No pseudopotential on this center.
   48          1
                                   No pseudopotential on this center.
   49          1
                                   No pseudopotential on this center.
   50          1
                                   No pseudopotential on this center.
   51          6
                                   No pseudopotential on this center.
   52          1
                                   No pseudopotential on this center.
   53          1
                                   No pseudopotential on this center.
   54          1
                                   No pseudopotential on this center.
   55          6
                                   No pseudopotential on this center.
   56          1
                                   No pseudopotential on this center.
   57          1
                                   No pseudopotential on this center.
   58          1
                                   No pseudopotential on this center.
   59          6
                                   No pseudopotential on this center.
   60          1
                                   No pseudopotential on this center.
   61          1
                                   No pseudopotential on this center.
   62          1
                                   No pseudopotential on this center.
   63          6
                                   No pseudopotential on this center.
   64          1
                                   No pseudopotential on this center.
   65          1
                                   No pseudopotential on this center.
   66          1
                                   No pseudopotential on this center.
   67          6
                                   No pseudopotential on this center.
   68          1
                                   No pseudopotential on this center.
   69          1
                                   No pseudopotential on this center.
   70          1
                                   No pseudopotential on this center.
   71          6
                                   No pseudopotential on this center.
   72          1
                                   No pseudopotential on this center.
   73          1
                                   No pseudopotential on this center.
   74          1
                                   No pseudopotential on this center.
   75          6
                                   No pseudopotential on this center.
   76          1
                                   No pseudopotential on this center.
   77          1
                                   No pseudopotential on this center.
   78          1
                                   No pseudopotential on this center.
   79          6
                                   No pseudopotential on this center.
   80          1
                                   No pseudopotential on this center.
   81          1
                                   No pseudopotential on this center.
   82          1
                                   No pseudopotential on this center.
   83          1
                                   No pseudopotential on this center.
   84          6
                                   No pseudopotential on this center.
   85          8
                                   No pseudopotential on this center.
   86          6
                                   No pseudopotential on this center.
   87          1
                                   No pseudopotential on this center.
   88          1
                                   No pseudopotential on this center.
   89          6
                                   No pseudopotential on this center.
   90          1
                                   No pseudopotential on this center.
   91          1
                                   No pseudopotential on this center.
   92          7
                                   No pseudopotential on this center.
   93          6
                                   No pseudopotential on this center.
   94          1
                                   No pseudopotential on this center.
   95          1
                                   No pseudopotential on this center.
   96          1
                                   No pseudopotential on this center.
   97          6
                                   No pseudopotential on this center.
   98          1
                                   No pseudopotential on this center.
   99          1
                                   No pseudopotential on this center.
  100          6
                                   No pseudopotential on this center.
  101          9
                                   No pseudopotential on this center.
  102          9
                                   No pseudopotential on this center.
  103          9
                                   No pseudopotential on this center.
  104          6
                                   No pseudopotential on this center.
  105          9
                                   No pseudopotential on this center.
  106          9
                                   No pseudopotential on this center.
  107          9
                                   No pseudopotential on this center.
  108          1
                                   No pseudopotential on this center.
 ======================================================================================================
 There are   940 symmetry adapted cartesian basis functions of A   symmetry.
 There are   884 symmetry adapted basis functions of A   symmetry.
   884 basis functions,  1767 primitive gaussians,   940 cartesian basis functions
   213 alpha electrons      213 beta electrons
       nuclear repulsion energy      9769.0548428490 Hartrees.
 NAtoms=  108 NActive=  108 NUniq=  108 SFac= 1.00D+00 NAtFMM=   60 NAOKFM=T Big=T
 Integral buffers will be    131072 words long.
 Raffenetti 2 integral format.
 Two-electron integral symmetry is turned on.
 One-electron integrals computed using PRISM.
   1 Symmetry operations used in ECPInt.
 ECPInt:  NShTT=   54615 NPrTT=  339395 LenC2=   41041 LenP2D=  127311.
 LDataN:  DoStor=T MaxTD1= 6 Len=  172
 NBasis=   884 RedAO= T EigKep=  4.38D-04  NBF=   884
 NBsUse=   884 1.00D-06 EigRej= -1.00D+00 NBFU=   884
 Defaulting to unpruned grid for atomic number  77.
 ExpMin= 2.90D-02 ExpMax= 7.00D+03 ExpMxC= 1.05D+03 IAcc=3 IRadAn=         5 AccDes= 0.00D+00
 Harris functional with IExCor= 1009 and IRadAn=       5 diagonalized for initial guess.
 HarFok:  IExCor= 1009 AccDes= 0.00D+00 IRadAn=         5 IDoV= 1 UseB2=F ITyADJ=14
 ICtDFT=  3500011 ScaDFX=  1.000000  1.000000  1.000000  1.000000
 Defaulting to unpruned grid for atomic number  77.
 FoFCou: FMM=F IPFlag=           0 FMFlag=      100000 FMFlg1=        2001
         NFxFlg=           0 DoJE=T BraDBF=F KetDBF=T FulRan=T
         wScrn=  0.000000 ICntrl=       500 IOpCl=  0 I1Cent=   200000004 NGrid=           0
         NMat0=    1 NMatS0=      1 NMatT0=    0 NMatD0=    1 NMtDS0=    0 NMtDT0=    0
 Petite list used in FoFCou.
 Requested convergence on RMS density matrix=1.00D-08 within 128 cycles.
 Requested convergence on MAX density matrix=1.00D-06.
 Requested convergence on             energy=1.00D-06.
 No special actions if energy rises.
 Defaulting to unpruned grid for atomic number  77.
 Defaulting to unpruned grid for atomic number  77.
 Defaulting to unpruned grid for atomic number  77.
 Defaulting to unpruned grid for atomic number  77.
 Defaulting to unpruned grid for atomic number  77.
 Defaulting to unpruned grid for atomic number  77.
 Defaulting to unpruned grid for atomic number  77.
 Defaulting to unpruned grid for atomic number  77.
 Defaulting to unpruned grid for atomic number  77.
 Defaulting to unpruned grid for atomic number  77.
 Defaulting to unpruned grid for atomic number  77.
 Defaulting to unpruned grid for atomic number  77.
 Defaulting to unpruned grid for atomic number  77.
 Defaulting to unpruned grid for atomic number  77.
 Defaulting to unpruned grid for atomic number  77.
 Defaulting to unpruned grid for atomic number  77.
 SCF Done:  E(RM06) =  -2833.55520875     A.U. after   15 cycles
            NFock= 15  Conv=0.40D-08     -V/T= 2.0321
 DoSCS=F DFT=T ScalE2(SS,OS)=  1.000000  1.000000
 Range of M.O.s used for correlation:     1   884
 NBasis=   884 NAE=   213 NBE=   213 NFC=     0 NFV=     0
 NROrb=    884 NOA=   213 NOB=   213 NVA=   671 NVB=   671
   1 Symmetry operations used in ECPInt.
 ECPInt:  NShTT=   54615 NPrTT=  339395 LenC2=   41041 LenP2D=  127311.
 LDataN:  DoStor=T MaxTD1= 7 Len=  274
 Number of processors reduced to   7 by ecpmxn.
 Symmetrizing basis deriv contribution to polar:
 IMax=3 JMax=2 DiffMx= 0.00D+00
 G2DrvN: will do   109 centers at a time, making    1 passes.
 Calling FoFCou, ICntrl=  3107 FMM=T I1Cent=   0 AccDes= 0.00D+00.
 Defaulting to unpruned grid for atomic number  77.
 Defaulting to unpruned grid for atomic number  77.
 Defaulting to unpruned grid for atomic number  77.
 Defaulting to unpruned grid for atomic number  77.
 Defaulting to unpruned grid for atomic number  77.
 Defaulting to unpruned grid for atomic number  77.
 Defaulting to unpruned grid for atomic number  77.
 Defaulting to unpruned grid for atomic number  77.
 Defaulting to unpruned grid for atomic number  77.
 Defaulting to unpruned grid for atomic number  77.
 Defaulting to unpruned grid for atomic number  77.
 Defaulting to unpruned grid for atomic number  77.
 Defaulting to unpruned grid for atomic number  77.
 Defaulting to unpruned grid for atomic number  77.
 Defaulting to unpruned grid for atomic number  77.
 Defaulting to unpruned grid for atomic number  77.
 End of G2Drv F.D. properties file   721 does not exist.
 End of G2Drv F.D. properties file   722 does not exist.
 End of G2Drv F.D. properties file   788 does not exist.
          IDoAtm=11111111111111111111111111111111111111111111111111
          IDoAtm=11111111111111111111111111111111111111111111111111
          IDoAtm=11111111
          Differentiating once with respect to electric field.
                with respect to dipole field.
          Differentiating once with respect to nuclear coordinates.
 Defaulting to unpruned grid for atomic number  77.
 CalDSu exits because no D1Ps are significant.
 Defaulting to unpruned grid for atomic number  77.
 Defaulting to unpruned grid for atomic number  77.
 Defaulting to unpruned grid for atomic number  77.
 Defaulting to unpruned grid for atomic number  77.
 Defaulting to unpruned grid for atomic number  77.
 Defaulting to unpruned grid for atomic number  77.
 Defaulting to unpruned grid for atomic number  77.
 Defaulting to unpruned grid for atomic number  77.
 Defaulting to unpruned grid for atomic number  77.
 Defaulting to unpruned grid for atomic number  77.
 Defaulting to unpruned grid for atomic number  77.
 Defaulting to unpruned grid for atomic number  77.
 Defaulting to unpruned grid for atomic number  77.
 Defaulting to unpruned grid for atomic number  77.
 Defaulting to unpruned grid for atomic number  77.
 Defaulting to unpruned grid for atomic number  77.
          There are   327 degrees of freedom in the 1st order CPHF.  IDoFFX=6 NUNeed=     3.
    324 vectors produced by pass  0 Test12= 1.43D-13 1.00D-09 XBig12= 5.09D+02 1.07D+01.
 AX will form    72 AO Fock derivatives at one time.
    324 vectors produced by pass  1 Test12= 1.43D-13 1.00D-09 XBig12= 9.97D+01 1.35D+00.
    324 vectors produced by pass  2 Test12= 1.43D-13 1.00D-09 XBig12= 1.12D+00 9.16D-02.
    324 vectors produced by pass  3 Test12= 1.43D-13 1.00D-09 XBig12= 6.83D-03 7.38D-03.
    324 vectors produced by pass  4 Test12= 1.43D-13 1.00D-09 XBig12= 2.96D-05 4.34D-04.
    292 vectors produced by pass  5 Test12= 1.43D-13 1.00D-09 XBig12= 6.19D-08 1.54D-05.
     87 vectors produced by pass  6 Test12= 1.43D-13 1.00D-09 XBig12= 9.33D-11 5.70D-07.
      3 vectors produced by pass  7 Test12= 1.43D-13 1.00D-09 XBig12= 1.20D-13 2.17D-08.
      1 vectors produced by pass  8 Test12= 1.43D-13 1.00D-09 XBig12= 1.12D-16 1.01D-09.
 InvSVY:  IOpt=1 It=  1 EMax= 1.07D-14
 Solved reduced A of dimension  2003 with   327 vectors.
 Isotropic polarizability for W=    0.000000      489.39 Bohr**3.
 End of Minotr F.D. properties file   721 does not exist.
 End of Minotr F.D. properties file   722 does not exist.
 End of Minotr F.D. properties file   788 does not exist.
 Hyperfine terms turned off by default for NAtoms > 100.

 **********************************************************************

            Population analysis using the SCF Density.

 **********************************************************************

 Orbital symmetries:
       Occupied  (A) (A) (A) (A) (A) (A) (A) (A) (A) (A) (A) (A)
                 (A) (A) (A) (A) (A) (A) (A) (A) (A) (A) (A) (A)
                 (A) (A) (A) (A) (A) (A) (A) (A) (A) (A) (A) (A)
                 (A) (A) (A) (A) (A) (A) (A) (A) (A) (A) (A) (A)
                 (A) (A) (A) (A) (A) (A) (A) (A) (A) (A) (A) (A)
                 (A) (A) (A) (A) (A) (A) (A) (A) (A) (A) (A) (A)
                 (A) (A) (A) (A) (A) (A) (A) (A) (A) (A) (A) (A)
                 (A) (A) (A) (A) (A) (A) (A) (A) (A) (A) (A) (A)
                 (A) (A) (A) (A) (A) (A) (A) (A) (A) (A) (A) (A)
                 (A) (A) (A) (A) (A) (A) (A) (A) (A) (A) (A) (A)
                 (A) (A) (A) (A) (A) (A) (A) (A) (A) (A) (A) (A)
                 (A) (A) (A) (A) (A) (A) (A) (A) (A) (A) (A) (A)
                 (A) (A) (A) (A) (A) (A) (A) (A) (A) (A) (A) (A)
                 (A) (A) (A) (A) (A) (A) (A) (A) (A) (A) (A) (A)
                 (A) (A) (A) (A) (A) (A) (A) (A) (A) (A) (A) (A)
                 (A) (A) (A) (A) (A) (A) (A) (A) (A) (A) (A) (A)
                 (A) (A) (A) (A) (A) (A) (A) (A) (A) (A) (A) (A)
                 (A) (A) (A) (A) (A) (A) (A) (A) (A)
       Virtual   (A) (A) (A) (A) (A) (A) (A) (A) (A) (A) (A) (A)
                 (A) (A) (A) (A) (A) (A) (A) (A) (A) (A) (A) (A)
                 (A) (A) (A) (A) (A) (A) (A) (A) (A) (A) (A) (A)
                 (A) (A) (A) (A) (A) (A) (A) (A) (A) (A) (A) (A)
                 (A) (A) (A) (A) (A) (A) (A) (A) (A) (A) (A) (A)
                 (A) (A) (A) (A) (A) (A) (A) (A) (A) (A) (A) (A)
                 (A) (A) (A) (A) (A) (A) (A) (A) (A) (A) (A) (A)
                 (A) (A) (A) (A) (A) (A) (A) (A) (A) (A) (A) (A)
                 (A) (A) (A) (A) (A) (A) (A) (A) (A) (A) (A) (A)
                 (A) (A) (A) (A) (A) (A) (A) (A) (A) (A) (A) (A)
                 (A) (A) (A) (A) (A) (A) (A) (A) (A) (A) (A) (A)
                 (A) (A) (A) (A) (A) (A) (A) (A) (A) (A) (A) (A)
                 (A) (A) (A) (A) (A) (A) (A) (A) (A) (A) (A) (A)
                 (A) (A) (A) (A) (A) (A) (A) (A) (A) (A) (A) (A)
                 (A) (A) (A) (A) (A) (A) (A) (A) (A) (A) (A) (A)
                 (A) (A) (A) (A) (A) (A) (A) (A) (A) (A) (A) (A)
                 (A) (A) (A) (A) (A) (A) (A) (A) (A) (A) (A) (A)
                 (A) (A) (A) (A) (A) (A) (A) (A) (A) (A) (A) (A)
                 (A) (A) (A) (A) (A) (A) (A) (A) (A) (A) (A) (A)
                 (A) (A) (A) (A) (A) (A) (A) (A) (A) (A) (A) (A)
                 (A) (A) (A) (A) (A) (A) (A) (A) (A) (A) (A) (A)
                 (A) (A) (A) (A) (A) (A) (A) (A) (A) (A) (A) (A)
                 (A) (A) (A) (A) (A) (A) (A) (A) (A) (A) (A) (A)
                 (A) (A) (A) (A) (A) (A) (A) (A) (A) (A) (A) (A)
                 (A) (A) (A) (A) (A) (A) (A) (A) (A) (A) (A) (A)
                 (A) (A) (A) (A) (A) (A) (A) (A) (A) (A) (A) (A)
                 (A) (A) (A) (A) (A) (A) (A) (A) (A) (A) (A) (A)
                 (A) (A) (A) (A) (A) (A) (A) (A) (A) (A) (A) (A)
                 (A) (A) (A) (A) (A) (A) (A) (A) (A) (A) (A) (A)
                 (A) (A) (A) (A) (A) (A) (A) (A) (A) (A) (A) (A)
                 (A) (A) (A) (A) (A) (A) (A) (A) (A) (A) (A) (A)
                 (A) (A) (A) (A) (A) (A) (A) (A) (A) (A) (A) (A)
                 (A) (A) (A) (A) (A) (A) (A) (A) (A) (A) (A) (A)
                 (A) (A) (A) (A) (A) (A) (A) (A) (A) (A) (A) (A)
                 (A) (A) (A) (A) (A) (A) (A) (A) (A) (A) (A) (A)
                 (A) (A) (A) (A) (A) (A) (A) (A) (A) (A) (A) (A)
                 (A) (A) (A) (A) (A) (A) (A) (A) (A) (A) (A) (A)
                 (A) (A) (A) (A) (A) (A) (A) (A) (A) (A) (A) (A)
                 (A) (A) (A) (A) (A) (A) (A) (A) (A) (A) (A) (A)
                 (A) (A) (A) (A) (A) (A) (A) (A) (A) (A) (A) (A)
                 (A) (A) (A) (A) (A) (A) (A) (A) (A) (A) (A) (A)
                 (A) (A) (A) (A) (A) (A) (A) (A) (A) (A) (A) (A)
                 (A) (A) (A) (A) (A) (A) (A) (A) (A) (A) (A) (A)
                 (A) (A) (A) (A) (A) (A) (A) (A) (A) (A) (A) (A)
                 (A) (A) (A) (A) (A) (A) (A) (A) (A) (A) (A) (A)
                 (A) (A) (A) (A) (A) (A) (A) (A) (A) (A) (A) (A)
                 (A) (A) (A) (A) (A) (A) (A) (A) (A) (A) (A) (A)
                 (A) (A) (A) (A) (A) (A) (A) (A) (A) (A) (A) (A)
                 (A) (A) (A) (A) (A) (A) (A) (A) (A) (A) (A) (A)
                 (A) (A) (A) (A) (A) (A) (A) (A) (A) (A) (A) (A)
                 (A) (A) (A) (A) (A) (A) (A) (A) (A) (A) (A) (A)
                 (A) (A) (A) (A) (A) (A) (A) (A) (A) (A) (A) (A)
                 (A) (A) (A) (A) (A) (A) (A) (A) (A) (A) (A) (A)
                 (A) (A) (A) (A) (A) (A) (A) (A) (A) (A) (A) (A)
                 (A) (A) (A) (A) (A) (A) (A) (A) (A) (A) (A) (A)
                 (A) (A) (A) (A) (A) (A) (A) (A) (A) (A) (A)
 The electronic state is 1-A.
 Alpha  occ. eigenvalues --  -24.83885 -24.83746 -24.83378 -24.83356 -24.83191
 Alpha  occ. eigenvalues --  -24.82778 -19.21466 -19.21461 -19.21312 -19.21096
 Alpha  occ. eigenvalues --  -19.20774 -19.20465 -19.16643 -14.46326 -14.46205
 Alpha  occ. eigenvalues --  -14.40680 -10.52165 -10.51659 -10.33374 -10.33272
 Alpha  occ. eigenvalues --  -10.32338 -10.32294 -10.31539 -10.30348 -10.30334
 Alpha  occ. eigenvalues --  -10.30334 -10.30156 -10.30129 -10.30042 -10.29781
 Alpha  occ. eigenvalues --  -10.29759 -10.29711 -10.29590 -10.29423 -10.29367
 Alpha  occ. eigenvalues --  -10.25636 -10.24012 -10.23701 -10.23440 -10.23333
 Alpha  occ. eigenvalues --  -10.23322 -10.23273 -10.23202 -10.23183 -10.23081
 Alpha  occ. eigenvalues --  -10.22921 -10.22861 -10.22395 -10.22373 -10.22357
 Alpha  occ. eigenvalues --  -10.21907  -6.81875  -6.81719  -6.81352  -3.65333
 Alpha  occ. eigenvalues --   -2.07717  -2.07004  -2.06516  -1.36495  -1.36008
 Alpha  occ. eigenvalues --   -1.28012  -1.27522  -1.27486  -1.26967  -1.07422
 Alpha  occ. eigenvalues --   -1.06896  -1.06593  -1.02523  -1.01510  -1.00453
 Alpha  occ. eigenvalues --   -0.99988  -0.99884  -0.99045  -0.92045  -0.87194
 Alpha  occ. eigenvalues --   -0.86300  -0.84714  -0.81421  -0.81012  -0.80930
 Alpha  occ. eigenvalues --   -0.80769  -0.77343  -0.76206  -0.75812  -0.75240
 Alpha  occ. eigenvalues --   -0.75201  -0.73021  -0.71313  -0.70861  -0.70509
 Alpha  occ. eigenvalues --   -0.69970  -0.69697  -0.69270  -0.68458  -0.67925
 Alpha  occ. eigenvalues --   -0.67747  -0.67658  -0.66887  -0.65852  -0.62859
 Alpha  occ. eigenvalues --   -0.62550  -0.62527  -0.62215  -0.62000  -0.61796
 Alpha  occ. eigenvalues --   -0.61656  -0.61363  -0.61096  -0.60746  -0.57447
 Alpha  occ. eigenvalues --   -0.55858  -0.55450  -0.55320  -0.55092  -0.54992
 Alpha  occ. eigenvalues --   -0.54140  -0.53644  -0.52068  -0.51621  -0.50431
 Alpha  occ. eigenvalues --   -0.50119  -0.49763  -0.49562  -0.49292  -0.49268
 Alpha  occ. eigenvalues --   -0.49011  -0.48670  -0.48375  -0.48038  -0.47818
 Alpha  occ. eigenvalues --   -0.47349  -0.47147  -0.47097  -0.46795  -0.46614
 Alpha  occ. eigenvalues --   -0.46557  -0.46246  -0.45994  -0.45611  -0.45451
 Alpha  occ. eigenvalues --   -0.45337  -0.45161  -0.44829  -0.44722  -0.44680
 Alpha  occ. eigenvalues --   -0.44175  -0.43962  -0.43795  -0.43759  -0.43527
 Alpha  occ. eigenvalues --   -0.43307  -0.43282  -0.42888  -0.42124  -0.41054
 Alpha  occ. eigenvalues --   -0.40863  -0.40685  -0.40661  -0.40455  -0.40379
 Alpha  occ. eigenvalues --   -0.40293  -0.40279  -0.40108  -0.39953  -0.39830
 Alpha  occ. eigenvalues --   -0.39598  -0.39541  -0.39390  -0.38695  -0.38443
 Alpha  occ. eigenvalues --   -0.38329  -0.38098  -0.37770  -0.37670  -0.37494
 Alpha  occ. eigenvalues --   -0.37381  -0.37164  -0.36963  -0.36684  -0.36650
 Alpha  occ. eigenvalues --   -0.36645  -0.36228  -0.36216  -0.35619  -0.35410
 Alpha  occ. eigenvalues --   -0.35211  -0.34891  -0.34778  -0.34310  -0.34166
 Alpha  occ. eigenvalues --   -0.33718  -0.33607  -0.33013  -0.32910  -0.32488
 Alpha  occ. eigenvalues --   -0.32272  -0.31999  -0.31514  -0.31199  -0.30843
 Alpha  occ. eigenvalues --   -0.30346  -0.28761  -0.28737  -0.28126  -0.27815
 Alpha  occ. eigenvalues --   -0.27439  -0.26731  -0.26565  -0.26288  -0.24222
 Alpha  occ. eigenvalues --   -0.24054  -0.22730  -0.19093
 Alpha virt. eigenvalues --   -0.08715  -0.05131  -0.04201  -0.00715   0.01565
 Alpha virt. eigenvalues --    0.03097   0.04735   0.05818   0.06214   0.06848
 Alpha virt. eigenvalues --    0.07072   0.07722   0.08474   0.09161   0.09442
 Alpha virt. eigenvalues --    0.10563   0.10784   0.11025   0.11213   0.11434
 Alpha virt. eigenvalues --    0.12021   0.12189   0.12531   0.12723   0.13132
 Alpha virt. eigenvalues --    0.13179   0.13597   0.13974   0.14246   0.14361
 Alpha virt. eigenvalues --    0.14596   0.14644   0.14890   0.15014   0.15139
 Alpha virt. eigenvalues --    0.15364   0.15670   0.16036   0.16234   0.16330
 Alpha virt. eigenvalues --    0.16493   0.16612   0.16808   0.16844   0.17171
 Alpha virt. eigenvalues --    0.17237   0.17978   0.18143   0.18188   0.18394
 Alpha virt. eigenvalues --    0.18601   0.18700   0.18896   0.19050   0.19254
 Alpha virt. eigenvalues --    0.19593   0.19938   0.20104   0.20309   0.20507
 Alpha virt. eigenvalues --    0.20610   0.20911   0.21032   0.21322   0.21557
 Alpha virt. eigenvalues --    0.21824   0.21953   0.22122   0.22254   0.22472
 Alpha virt. eigenvalues --    0.22832   0.22950   0.23105   0.23321   0.23456
 Alpha virt. eigenvalues --    0.23613   0.23788   0.23914   0.24180   0.24429
 Alpha virt. eigenvalues --    0.24644   0.25117   0.25193   0.25532   0.25804
 Alpha virt. eigenvalues --    0.25960   0.26059   0.26321   0.26534   0.26771
 Alpha virt. eigenvalues --    0.26958   0.27234   0.27605   0.27911   0.27940
 Alpha virt. eigenvalues --    0.29644   0.29876   0.30394   0.30659   0.30795
 Alpha virt. eigenvalues --    0.31313   0.32084   0.32392   0.32920   0.33839
 Alpha virt. eigenvalues --    0.34308   0.34894   0.35269   0.35789   0.36110
 Alpha virt. eigenvalues --    0.36653   0.36938   0.37375   0.37513   0.38434
 Alpha virt. eigenvalues --    0.39038   0.39339   0.40505   0.41101   0.42032
 Alpha virt. eigenvalues --    0.42893   0.43877   0.45338   0.45982   0.47240
 Alpha virt. eigenvalues --    0.47562   0.47760   0.48233   0.48451   0.48981
 Alpha virt. eigenvalues --    0.49559   0.50314   0.50496   0.50842   0.50957
 Alpha virt. eigenvalues --    0.51086   0.51679   0.51782   0.52204   0.52632
 Alpha virt. eigenvalues --    0.52867   0.53079   0.53477   0.53717   0.54753
 Alpha virt. eigenvalues --    0.55004   0.55485   0.55641   0.56237   0.56465
 Alpha virt. eigenvalues --    0.56510   0.56789   0.56988   0.57303   0.57702
 Alpha virt. eigenvalues --    0.57943   0.58232   0.58679   0.59042   0.59150
 Alpha virt. eigenvalues --    0.59335   0.59709   0.59871   0.60048   0.60651
 Alpha virt. eigenvalues --    0.61069   0.61273   0.61910   0.62023   0.62377
 Alpha virt. eigenvalues --    0.62414   0.62557   0.63029   0.63110   0.63712
 Alpha virt. eigenvalues --    0.64209   0.64771   0.65062   0.65597   0.65635
 Alpha virt. eigenvalues --    0.66033   0.66601   0.66756   0.66927   0.67501
 Alpha virt. eigenvalues --    0.67879   0.68050   0.68211   0.68626   0.69176
 Alpha virt. eigenvalues --    0.69593   0.70303   0.70411   0.70737   0.71121
 Alpha virt. eigenvalues --    0.71512   0.71754   0.71951   0.72222   0.72661
 Alpha virt. eigenvalues --    0.72921   0.73302   0.73515   0.74297   0.74340
 Alpha virt. eigenvalues --    0.74670   0.74903   0.75553   0.75725   0.75914
 Alpha virt. eigenvalues --    0.76225   0.76956   0.77528   0.78029   0.78299
 Alpha virt. eigenvalues --    0.78776   0.78882   0.79434   0.79897   0.80112
 Alpha virt. eigenvalues --    0.80638   0.80982   0.81833   0.82141   0.82646
 Alpha virt. eigenvalues --    0.83136   0.83390   0.83443   0.83877   0.84093
 Alpha virt. eigenvalues --    0.84237   0.84500   0.84563   0.84849   0.85420
 Alpha virt. eigenvalues --    0.85711   0.85792   0.86166   0.86320   0.86807
 Alpha virt. eigenvalues --    0.87157   0.87360   0.87577   0.87652   0.88197
 Alpha virt. eigenvalues --    0.88228   0.88452   0.88913   0.88992   0.89085
 Alpha virt. eigenvalues --    0.89396   0.89692   0.90034   0.90152   0.90419
 Alpha virt. eigenvalues --    0.90550   0.90826   0.91127   0.91475   0.91621
 Alpha virt. eigenvalues --    0.91791   0.92223   0.92610   0.93257   0.93600
 Alpha virt. eigenvalues --    0.93789   0.94161   0.94438   0.94529   0.94922
 Alpha virt. eigenvalues --    0.95109   0.95549   0.95764   0.96171   0.96529
 Alpha virt. eigenvalues --    0.96686   0.97165   0.97845   0.98119   0.98328
 Alpha virt. eigenvalues --    0.98791   0.99014   0.99735   1.00174   1.00324
 Alpha virt. eigenvalues --    1.00717   1.01459   1.01621   1.02043   1.02341
 Alpha virt. eigenvalues --    1.03449   1.03623   1.04419   1.04982   1.06180
 Alpha virt. eigenvalues --    1.06431   1.06906   1.07356   1.07778   1.08430
 Alpha virt. eigenvalues --    1.08954   1.09749   1.10129   1.11089   1.11611
 Alpha virt. eigenvalues --    1.11897   1.12018   1.12647   1.13738   1.13965
 Alpha virt. eigenvalues --    1.14249   1.15250   1.15303   1.15801   1.16294
 Alpha virt. eigenvalues --    1.16430   1.16845   1.17317   1.17627   1.17782
 Alpha virt. eigenvalues --    1.18054   1.18702   1.19580   1.19939   1.20445
 Alpha virt. eigenvalues --    1.20898   1.21162   1.21398   1.22033   1.22451
 Alpha virt. eigenvalues --    1.22687   1.23385   1.23949   1.24534   1.24776
 Alpha virt. eigenvalues --    1.25296   1.25784   1.26637   1.26948   1.27315
 Alpha virt. eigenvalues --    1.28531   1.28724   1.29535   1.30410   1.30507
 Alpha virt. eigenvalues --    1.31648   1.32967   1.33296   1.33711   1.34146
 Alpha virt. eigenvalues --    1.34645   1.35021   1.35496   1.35856   1.36427
 Alpha virt. eigenvalues --    1.36841   1.37435   1.37929   1.38132   1.38382
 Alpha virt. eigenvalues --    1.38828   1.39130   1.39560   1.40191   1.40607
 Alpha virt. eigenvalues --    1.40880   1.41359   1.41663   1.42248   1.42300
 Alpha virt. eigenvalues --    1.42957   1.43057   1.43771   1.44301   1.44551
 Alpha virt. eigenvalues --    1.44991   1.45453   1.46065   1.46435   1.46654
 Alpha virt. eigenvalues --    1.46908   1.47212   1.47905   1.48186   1.49138
 Alpha virt. eigenvalues --    1.49604   1.50892   1.51394   1.52367   1.53084
 Alpha virt. eigenvalues --    1.54092   1.54215   1.55132   1.55412   1.56138
 Alpha virt. eigenvalues --    1.56944   1.58647   1.60077   1.60626   1.61384
 Alpha virt. eigenvalues --    1.62320   1.63320   1.63648   1.64241   1.64460
 Alpha virt. eigenvalues --    1.64695   1.65540   1.65842   1.66513   1.66754
 Alpha virt. eigenvalues --    1.67272   1.67980   1.68620   1.68733   1.69245
 Alpha virt. eigenvalues --    1.69786   1.70114   1.70816   1.72164   1.72674
 Alpha virt. eigenvalues --    1.72759   1.73244   1.73754   1.74240   1.75239
 Alpha virt. eigenvalues --    1.75429   1.75740   1.75901   1.76635   1.77105
 Alpha virt. eigenvalues --    1.77409   1.78008   1.78357   1.78637   1.79255
 Alpha virt. eigenvalues --    1.79421   1.80152   1.80517   1.81229   1.81610
 Alpha virt. eigenvalues --    1.82187   1.82576   1.82926   1.83441   1.84021
 Alpha virt. eigenvalues --    1.84592   1.84727   1.84966   1.85579   1.85746
 Alpha virt. eigenvalues --    1.86254   1.86987   1.87171   1.87584   1.87932
 Alpha virt. eigenvalues --    1.88342   1.88678   1.88849   1.89405   1.89714
 Alpha virt. eigenvalues --    1.90041   1.90322   1.90633   1.90846   1.91340
 Alpha virt. eigenvalues --    1.91723   1.91885   1.92087   1.92309   1.93124
 Alpha virt. eigenvalues --    1.93294   1.93586   1.93864   1.94428   1.94740
 Alpha virt. eigenvalues --    1.95191   1.95567   1.95873   1.96302   1.96876
 Alpha virt. eigenvalues --    1.97480   1.98344   1.98390   1.99131   1.99405
 Alpha virt. eigenvalues --    1.99717   2.00443   2.01157   2.01574   2.01796
 Alpha virt. eigenvalues --    2.02318   2.02497   2.02843   2.02929   2.03156
 Alpha virt. eigenvalues --    2.03311   2.03521   2.04001   2.04817   2.05116
 Alpha virt. eigenvalues --    2.05805   2.06476   2.06682   2.07064   2.07333
 Alpha virt. eigenvalues --    2.07851   2.07881   2.08380   2.08774   2.08882
 Alpha virt. eigenvalues --    2.09147   2.09399   2.09615   2.09849   2.10600
 Alpha virt. eigenvalues --    2.10871   2.11504   2.11731   2.11815   2.12170
 Alpha virt. eigenvalues --    2.12362   2.13071   2.13525   2.14305   2.14632
 Alpha virt. eigenvalues --    2.14790   2.14985   2.15366   2.16085   2.16201
 Alpha virt. eigenvalues --    2.16390   2.16741   2.17040   2.17806   2.18147
 Alpha virt. eigenvalues --    2.18670   2.18960   2.19178   2.19601   2.19904
 Alpha virt. eigenvalues --    2.20198   2.20432   2.20955   2.21622   2.22294
 Alpha virt. eigenvalues --    2.22446   2.22854   2.23139   2.23441   2.24058
 Alpha virt. eigenvalues --    2.24442   2.24713   2.24899   2.25182   2.25351
 Alpha virt. eigenvalues --    2.25664   2.26441   2.26791   2.27289   2.27404
 Alpha virt. eigenvalues --    2.27524   2.28194   2.28557   2.28853   2.29172
 Alpha virt. eigenvalues --    2.29822   2.31161   2.31661   2.32628   2.32938
 Alpha virt. eigenvalues --    2.33456   2.33798   2.34071   2.34165   2.34807
 Alpha virt. eigenvalues --    2.36306   2.36428   2.37803   2.38793   2.38907
 Alpha virt. eigenvalues --    2.39786   2.40073   2.40914   2.41769   2.42133
 Alpha virt. eigenvalues --    2.44551   2.44812   2.45859   2.46220   2.46674
 Alpha virt. eigenvalues --    2.47133   2.47374   2.47772   2.48927   2.49702
 Alpha virt. eigenvalues --    2.49942   2.50564   2.51847   2.52781   2.53609
 Alpha virt. eigenvalues --    2.54672   2.54675   2.57067   2.59870   2.60563
 Alpha virt. eigenvalues --    2.60822   2.61331   2.61995   2.62467   2.63151
 Alpha virt. eigenvalues --    2.64103   2.64428   2.65336   2.65803   2.66179
 Alpha virt. eigenvalues --    2.66791   2.68680   2.69089   2.70454   2.71768
 Alpha virt. eigenvalues --    2.75453   2.75976   2.76164   2.76668   2.77172
 Alpha virt. eigenvalues --    2.77560   2.77661   2.78038   2.78601   2.79010
 Alpha virt. eigenvalues --    2.80194   2.80352   2.80571   2.80936   2.81467
 Alpha virt. eigenvalues --    2.81640   2.82416   2.83492   2.84825   2.86919
 Alpha virt. eigenvalues --    2.89510   2.91368   2.91733   2.92082   2.93346
 Alpha virt. eigenvalues --    2.94115   2.94458   2.95311   2.96254   2.97702
 Alpha virt. eigenvalues --    2.99770   3.03319   3.03669   3.05772   3.06507
 Alpha virt. eigenvalues --    3.06789   3.07181   3.08069   3.08380   3.10039
 Alpha virt. eigenvalues --    3.11430   3.11952   3.12445   3.12984   3.13731
 Alpha virt. eigenvalues --    3.14936   3.21724   3.26768   3.32103   3.45483
 Alpha virt. eigenvalues --   13.00892
          Condensed to atoms (all electrons):
 Mulliken charges:
               1
     1  C    0.377583
     2  C    0.017669
     3  C   -0.050622
     4  C   -0.153931
     5  C   -0.163803
     6  C    0.324906
     7  C    0.080879
     8  C   -0.086908
     9  C   -0.151994
    10  C   -0.188087
    11  H    0.220253
    12  H    0.202484
    13  H    0.180908
    14  H    0.228101
    15  H    0.201306
    16  H    0.180628
    17  N   -0.502357
    18  N   -0.533939
    19  Ir  -0.153084
    20  O   -0.513946
    21  O   -0.531030
    22  O   -0.501576
    23  B    0.473392
    24  B    0.425579
    25  B    0.544629
    26  O   -0.500875
    27  O   -0.512297
    28  C    0.295464
    29  C    0.285213
    30  C    0.286665
    31  C    0.290841
    32  C    0.290498
    33  C    0.279262
    34  O   -0.497004
    35  C   -0.510211
    36  H    0.160655
    37  H    0.153927
    38  H    0.174877
    39  C   -0.492548
    40  H    0.180049
    41  H    0.146137
    42  H    0.154437
    43  C   -0.520516
    44  H    0.151512
    45  H    0.183407
    46  H    0.154887
    47  C   -0.506257
    48  H    0.151701
    49  H    0.173542
    50  H    0.165671
    51  C   -0.509667
    52  H    0.177204
    53  H    0.173476
    54  H    0.154169
    55  C   -0.505405
    56  H    0.163997
    57  H    0.155541
    58  H    0.169409
    59  C   -0.504180
    60  H    0.161486
    61  H    0.150326
    62  H    0.173381
    63  C   -0.503363
    64  H    0.175082
    65  H    0.142827
    66  H    0.180122
    67  C   -0.504817
    68  H    0.154940
    69  H    0.167116
    70  H    0.158754
    71  C   -0.501268
    72  H    0.175435
    73  H    0.152724
    74  H    0.165235
    75  C   -0.509838
    76  H    0.178015
    77  H    0.169548
    78  H    0.152115
    79  C   -0.492233
    80  H    0.184768
    81  H    0.155670
    82  H    0.137675
    83  H    0.172208
    84  C    0.572702
    85  O   -0.541117
    86  C   -0.403799
    87  H    0.177486
    88  H    0.159516
    89  C   -0.334650
    90  H    0.135396
    91  H    0.181501
    92  N   -0.358660
    93  C   -0.364394
    94  H    0.161594
    95  H    0.211156
    96  H    0.172243
    97  C   -0.464777
    98  H    0.134058
    99  H    0.182617
   100  C    0.969956
   101  F   -0.302201
   102  F   -0.312972
   103  F   -0.306747
   104  C    0.968914
   105  F   -0.304750
   106  F   -0.308892
   107  F   -0.316225
   108  H    0.155517
 Sum of Mulliken charges =  -0.00000
 Mulliken charges with hydrogens summed into heavy atoms:
               1
     1  C    0.377583
     2  C    0.237922
     3  C   -0.050622
     4  C    0.048553
     5  C    0.017105
     6  C    0.324906
     7  C    0.308980
     8  C   -0.086908
     9  C    0.049312
    10  C   -0.007459
    17  N   -0.502357
    18  N   -0.533939
    19  Ir   0.019124
    20  O   -0.513946
    21  O   -0.531030
    22  O   -0.501576
    23  B    0.473392
    24  B    0.425579
    25  B    0.544629
    26  O   -0.500875
    27  O   -0.512297
    28  C    0.295464
    29  C    0.285213
    30  C    0.286665
    31  C    0.290841
    32  C    0.290498
    33  C    0.279262
    34  O   -0.497004
    35  C   -0.020751
    39  C   -0.011925
    43  C   -0.030710
    47  C   -0.015344
    51  C   -0.004818
    55  C   -0.016459
    59  C   -0.018987
    63  C   -0.005332
    67  C   -0.024007
    71  C   -0.007873
    75  C   -0.010160
    79  C   -0.014119
    84  C    0.572702
    85  O   -0.541117
    86  C   -0.066796
    89  C   -0.017754
    92  N   -0.358660
    93  C    0.180599
    97  C    0.007415
   100  C    0.969956
   101  F   -0.302201
   102  F   -0.312972
   103  F   -0.306747
   104  C    0.968914
   105  F   -0.304750
   106  F   -0.308892
   107  F   -0.316225
 APT charges:
               1
     1  C    0.205040
     2  C    0.069610
     3  C   -0.209392
     4  C    0.105412
     5  C   -0.156721
     6  C    0.211581
     7  C    0.047836
     8  C   -0.180717
     9  C    0.085005
    10  C   -0.189514
    11  H    0.075622
    12  H    0.069642
    13  H    0.045601
    14  H    0.130611
    15  H    0.064946
    16  H    0.046474
    17  N   -0.165641
    18  N   -0.046574
    19  Ir  -0.933105
    20  O   -0.997867
    21  O   -1.015718
    22  O   -0.920573
    23  B    1.360449
    24  B    1.313483
    25  B    1.150484
    26  O   -0.878251
    27  O   -0.943245
    28  C    0.495748
    29  C    0.490464
    30  C    0.461118
    31  C    0.467330
    32  C    0.502086
    33  C    0.500833
    34  O   -0.974832
    35  C   -0.005736
    36  H   -0.005923
    37  H   -0.018152
    38  H    0.006085
    39  C   -0.025792
    40  H    0.009516
    41  H   -0.026372
    42  H    0.001968
    43  C   -0.060046
    44  H   -0.019529
    45  H    0.041468
    46  H    0.001872
    47  C   -0.007649
    48  H   -0.015395
    49  H    0.003771
    50  H   -0.000203
    51  C   -0.040647
    52  H    0.010497
    53  H    0.005017
    54  H   -0.022135
    55  C   -0.006314
    56  H   -0.002289
    57  H   -0.019948
    58  H    0.004406
    59  C   -0.006259
    60  H   -0.001240
    61  H   -0.016699
    62  H    0.001969
    63  C   -0.034404
    64  H    0.003555
    65  H   -0.026121
    66  H    0.025227
    67  C   -0.013536
    68  H   -0.008730
    69  H    0.001854
    70  H   -0.001218
    71  C   -0.019842
    72  H    0.002063
    73  H   -0.021030
    74  H   -0.002403
    75  C   -0.002432
    76  H    0.004880
    77  H    0.003771
    78  H   -0.015589
    79  C   -0.021231
    80  H    0.009790
    81  H   -0.012245
    82  H   -0.018475
    83  H   -0.000102
    84  C    0.866359
    85  O   -0.702397
    86  C    0.009424
    87  H   -0.026445
    88  H   -0.022222
    89  C    0.370056
    90  H   -0.086127
    91  H   -0.033307
    92  N   -0.777981
    93  C    0.267513
    94  H   -0.034666
    95  H    0.054876
    96  H   -0.027414
    97  C    0.085417
    98  H   -0.026361
    99  H    0.011492
   100  C    1.788764
   101  F   -0.589853
   102  F   -0.579192
   103  F   -0.525302
   104  C    1.798856
   105  F   -0.590643
   106  F   -0.526807
   107  F   -0.597873
   108  H   -0.033417
 Sum of APT charges =  -0.00000
 APT charges with hydrogens summed into heavy atoms:
               1
     1  C    0.205040
     2  C    0.145232
     3  C   -0.209392
     4  C    0.175054
     5  C   -0.111120
     6  C    0.211581
     7  C    0.178447
     8  C   -0.180717
     9  C    0.149951
    10  C   -0.143040
    17  N   -0.165641
    18  N   -0.046574
    19  Ir  -0.933207
    20  O   -0.997867
    21  O   -1.015718
    22  O   -0.920573
    23  B    1.360449
    24  B    1.313483
    25  B    1.150484
    26  O   -0.878251
    27  O   -0.943245
    28  C    0.495748
    29  C    0.490464
    30  C    0.461118
    31  C    0.467330
    32  C    0.502086
    33  C    0.500833
    34  O   -0.974832
    35  C   -0.023725
    39  C   -0.040679
    43  C   -0.036236
    47  C   -0.019476
    51  C   -0.047267
    55  C   -0.024146
    59  C   -0.022230
    63  C   -0.031743
    67  C   -0.021630
    71  C   -0.041211
    75  C   -0.009370
    79  C   -0.042162
    84  C    0.866359
    85  O   -0.702397
    86  C   -0.039243
    89  C    0.250622
    92  N   -0.777981
    93  C    0.260310
    97  C    0.037131
   100  C    1.788764
   101  F   -0.589853
   102  F   -0.579192
   103  F   -0.525302
   104  C    1.798856
   105  F   -0.590643
   106  F   -0.526807
   107  F   -0.597873
 Electronic spatial extent (au):  <R**2>=          32023.3578
 Charge=             -0.0000 electrons
 Dipole moment (field-independent basis, Debye):
    X=              0.5487    Y=              2.1001    Z=              2.6940  Tot=              3.4596
 Quadrupole moment (field-independent basis, Debye-Ang):
   XX=           -328.6061   YY=           -330.8860   ZZ=           -320.2498
   XY=              6.9800   XZ=             13.0916   YZ=              7.4159
 Traceless Quadrupole moment (field-independent basis, Debye-Ang):
   XX=             -2.0255   YY=             -4.3054   ZZ=              6.3309
   XY=              6.9800   XZ=             13.0916   YZ=              7.4159
 Octapole moment (field-independent basis, Debye-Ang**2):
  XXX=            -20.7496  YYY=             18.5633  ZZZ=            103.0110  XYY=            -12.9799
  XXY=              0.9880  XXZ=            -25.3002  XZZ=             67.2450  YZZ=            -36.7796
  YYZ=            -58.7403  XYZ=              7.0295
 Hexadecapole moment (field-independent basis, Debye-Ang**3):
 XXXX=         -19794.2281 YYYY=         -11505.2730 ZZZZ=          -8559.1712 XXXY=             45.6452
 XXXZ=             26.4854 YYYX=            194.8369 YYYZ=             51.8422 ZZZX=            -78.1413
 ZZZY=            -66.7895 XXYY=          -5082.6653 XXZZ=          -4699.8581 YYZZ=          -3464.4101
 XXYZ=             98.9237 YYXZ=           -160.7767 ZZXY=             47.4460
 N-N= 9.769054842849D+03 E-N=-2.614367560799D+04  KE= 2.745508840676D+03
  Exact polarizability:     561.441      -4.067     432.730       9.573      -0.395     474.001
 Approx polarizability:     786.737       5.757     591.834       1.619      -9.743     763.988
   1 Symmetry operations used in ECPInt.
 ECPInt:  NShTT=   54615 NPrTT=  339395 LenC2=   41041 LenP2D=  127311.
 LDataN:  DoStor=T MaxTD1= 8 Len=  415
 Calling FoFJK, ICntrl=    100127 FMM=F ISym2X=0 I1Cent= 0 IOpClX= 0 NMat=1 NMatS=1 NMatT=0.
 Defaulting to unpruned grid for atomic number  77.
 Defaulting to unpruned grid for atomic number  77.
 Defaulting to unpruned grid for atomic number  77.
 Defaulting to unpruned grid for atomic number  77.
 Defaulting to unpruned grid for atomic number  77.
 Defaulting to unpruned grid for atomic number  77.
 Defaulting to unpruned grid for atomic number  77.
 Defaulting to unpruned grid for atomic number  77.
 Defaulting to unpruned grid for atomic number  77.
 Defaulting to unpruned grid for atomic number  77.
 Defaulting to unpruned grid for atomic number  77.
 Defaulting to unpruned grid for atomic number  77.
 Defaulting to unpruned grid for atomic number  77.
 Defaulting to unpruned grid for atomic number  77.
 Defaulting to unpruned grid for atomic number  77.
 Defaulting to unpruned grid for atomic number  77.
 Full mass-weighted force constant matrix:
 Low frequencies ---   -7.9349   -0.9193   -0.0007   -0.0006   -0.0005    4.4785
 Low frequencies ---   18.7662   27.3213   32.3098
 Diagonal vibrational polarizability:
       98.1187159     127.8962690      46.1674018
 Harmonic frequencies (cm**-1), IR intensities (KM/Mole), Raman scattering
 activities (A**4/AMU), depolarization ratios for plane and unpolarized
 incident light, reduced masses (AMU), force constants (mDyne/A),
 and normal coordinates:
                      1                      2                      3
                      A                      A                      A
 Frequencies --     18.7633                27.2187                32.1311
 Red. masses --      6.2803                 5.3411                 4.9104
 Frc consts  --      0.0013                 0.0023                 0.0030
 IR Inten    --      0.0491                 0.3376                 1.4272
  Atom AN      X      Y      Z        X      Y      Z        X      Y      Z
     1   6     0.01  -0.04  -0.01    -0.02   0.00   0.02    -0.01   0.12   0.00
     2   6     0.00  -0.01  -0.01     0.00   0.01   0.03    -0.00  -0.01  -0.01
     3   6     0.00  -0.02  -0.02    -0.01   0.02   0.04    -0.01   0.06  -0.01
     4   6     0.01  -0.05  -0.02    -0.02   0.02   0.04    -0.01   0.18  -0.00
     5   6     0.01  -0.06  -0.02    -0.02   0.01   0.03    -0.01   0.21   0.00
     6   6     0.01  -0.02  -0.01    -0.02  -0.01   0.01    -0.01   0.12   0.01
     7   6     0.00   0.03   0.01    -0.02  -0.02  -0.02     0.00  -0.02   0.00
     8   6     0.01   0.06   0.01    -0.03  -0.03  -0.02    -0.00   0.05   0.01
     9   6     0.01   0.04   0.00    -0.04  -0.03  -0.01    -0.01   0.17   0.01
    10   6     0.01  -0.00  -0.00    -0.03  -0.01   0.00    -0.01   0.20   0.01
    11   1    -0.00   0.01  -0.01     0.01   0.01   0.03    -0.00  -0.10  -0.01
    12   1     0.01  -0.06  -0.02    -0.03   0.03   0.05    -0.02   0.25  -0.00
    13   1     0.02  -0.08  -0.02    -0.03   0.01   0.03    -0.02   0.30   0.01
    14   1    -0.00   0.04   0.01    -0.01  -0.02  -0.02     0.01  -0.10  -0.00
    15   1     0.01   0.07   0.01    -0.05  -0.03  -0.01    -0.01   0.23   0.02
    16   1     0.02  -0.01  -0.01    -0.04  -0.01   0.01    -0.02   0.29   0.02
    17   7     0.00  -0.02  -0.01    -0.00   0.00   0.02    -0.00   0.01  -0.00
    18   7     0.00  -0.01  -0.00    -0.01  -0.01  -0.00    -0.00   0.02   0.00
    19  77     0.00  -0.01  -0.00     0.00  -0.01   0.00    -0.01  -0.03  -0.00
    20   8     0.02  -0.02  -0.04    -0.00  -0.02  -0.00     0.00   0.00   0.01
    21   8    -0.00  -0.01   0.02    -0.01   0.02   0.04    -0.01  -0.03  -0.03
    22   8     0.00   0.02   0.07     0.05  -0.04  -0.03     0.04  -0.03   0.00
    23   5    -0.00  -0.03   0.01    -0.02  -0.00   0.03    -0.00  -0.02  -0.02
    24   5    -0.01  -0.03  -0.02     0.02   0.01  -0.01     0.00  -0.02   0.01
    25   5    -0.01  -0.01   0.05     0.01  -0.01  -0.01    -0.01  -0.02   0.00
    26   8    -0.04  -0.03   0.08    -0.02   0.01  -0.01    -0.05  -0.03   0.03
    27   8    -0.03  -0.03  -0.03     0.04   0.05  -0.02     0.00  -0.03   0.02
    28   6    -0.02  -0.02  -0.06     0.04   0.06  -0.01     0.00  -0.02   0.02
    29   6     0.02  -0.02  -0.06     0.01  -0.00  -0.02     0.01   0.00   0.03
    30   6    -0.01   0.02   0.12     0.05  -0.04  -0.03     0.05  -0.05   0.03
    31   6    -0.04  -0.02   0.12     0.01   0.00  -0.03     0.01  -0.05   0.03
    32   6    -0.00  -0.03   0.03    -0.03   0.00   0.08    -0.01  -0.01  -0.05
    33   6    -0.00  -0.05   0.03    -0.04  -0.03   0.06    -0.00   0.02  -0.04
    34   8    -0.00  -0.04   0.02    -0.03  -0.03   0.04     0.00  -0.00  -0.02
    35   6     0.03  -0.01  -0.09    -0.01  -0.02   0.02     0.01   0.03   0.02
    36   1     0.02  -0.01  -0.10    -0.01  -0.01   0.07     0.00   0.03   0.00
    37   1     0.03  -0.01  -0.11     0.00  -0.00   0.00     0.01   0.03   0.03
    38   1     0.06  -0.02  -0.09    -0.03  -0.07   0.01     0.01   0.04   0.02
    39   6     0.03  -0.02  -0.04     0.01  -0.02  -0.09     0.02   0.00   0.05
    40   1     0.06  -0.02  -0.03    -0.03  -0.06  -0.10     0.02   0.02   0.05
    41   1     0.03  -0.02  -0.05     0.03  -0.01  -0.09     0.03   0.01   0.07
    42   1     0.02  -0.03  -0.02     0.04  -0.02  -0.13     0.02  -0.01   0.05
    43   6    -0.04  -0.02  -0.09     0.04   0.08   0.05     0.00  -0.03   0.00
    44   1    -0.03  -0.01  -0.12     0.04   0.09   0.07     0.00  -0.03   0.01
    45   1    -0.03  -0.02  -0.08     0.02   0.06   0.08     0.00  -0.02  -0.02
    46   1    -0.07  -0.01  -0.09     0.07   0.11   0.05     0.00  -0.05  -0.00
    47   6    -0.03  -0.02  -0.06     0.07   0.09  -0.06     0.00  -0.04   0.05
    48   1    -0.02  -0.02  -0.08     0.08   0.09  -0.06     0.00  -0.03   0.05
    49   1    -0.05  -0.03  -0.07     0.09   0.13  -0.05    -0.00  -0.06   0.04
    50   1    -0.02  -0.03  -0.05     0.08   0.07  -0.10     0.01  -0.04   0.06
    51   6    -0.01  -0.02   0.06    -0.03   0.02   0.11    -0.01  -0.02  -0.08
    52   1    -0.01  -0.02   0.07    -0.03   0.01   0.11    -0.01  -0.02  -0.10
    53   1    -0.01   0.00   0.05    -0.02   0.05   0.11    -0.00  -0.04  -0.08
    54   1    -0.00  -0.03   0.07    -0.03   0.01   0.14    -0.02  -0.01  -0.10
    55   6    -0.00  -0.02   0.02    -0.02   0.01   0.08    -0.01  -0.01  -0.04
    56   1    -0.00  -0.03   0.00    -0.02   0.01   0.07    -0.00   0.00  -0.02
    57   1    -0.00  -0.04   0.04    -0.03   0.00   0.10    -0.01   0.01  -0.06
    58   1    -0.00   0.00   0.03    -0.02   0.03   0.09    -0.01  -0.03  -0.05
    59   6     0.00  -0.07   0.05    -0.06  -0.06   0.10    -0.02   0.04  -0.08
    60   1     0.00  -0.06   0.07    -0.05  -0.05   0.11    -0.03   0.02  -0.09
    61   1     0.00  -0.07   0.06    -0.06  -0.06   0.12    -0.02   0.06  -0.09
    62   1     0.00  -0.09   0.05    -0.07  -0.08   0.08    -0.01   0.06  -0.07
    63   6    -0.00  -0.07   0.00    -0.04  -0.05   0.05     0.01   0.05  -0.02
    64   1    -0.01  -0.09  -0.00    -0.05  -0.08   0.03     0.02   0.07  -0.01
    65   1    -0.01  -0.07   0.01    -0.05  -0.05   0.06     0.01   0.07  -0.03
    66   1    -0.00  -0.06  -0.02    -0.03  -0.04   0.02     0.02   0.04   0.01
    67   6    -0.05  -0.04   0.15    -0.01   0.00   0.01     0.00  -0.10   0.07
    68   1    -0.05  -0.02   0.19     0.01  -0.01  -0.01     0.05  -0.11   0.09
    69   1    -0.07  -0.07   0.15    -0.05   0.05   0.01    -0.03  -0.10   0.07
    70   1    -0.04  -0.02   0.14    -0.01  -0.02   0.06    -0.02  -0.13   0.10
    71   6    -0.05  -0.04   0.12    -0.00   0.03  -0.08     0.03  -0.01   0.00
    72   1    -0.07  -0.07   0.12    -0.04   0.05  -0.08     0.00   0.01   0.00
    73   1    -0.05  -0.04   0.16     0.02   0.02  -0.10     0.06  -0.02  -0.00
    74   1    -0.04  -0.03   0.10     0.01   0.03  -0.12     0.03   0.01  -0.01
    75   6    -0.00   0.04   0.14     0.09  -0.05  -0.07     0.09  -0.04   0.02
    76   1     0.01   0.06   0.14     0.12  -0.08  -0.07     0.13  -0.04   0.02
    77   1    -0.00   0.03   0.14     0.08  -0.04  -0.11     0.09  -0.03  -0.01
    78   1    -0.00   0.03   0.17     0.08  -0.05  -0.06     0.10  -0.05   0.04
    79   6     0.00   0.04   0.13     0.07  -0.06   0.03     0.06  -0.08   0.07
    80   1     0.03   0.08   0.12     0.10  -0.09   0.03     0.09  -0.06   0.06
    81   1     0.00   0.04   0.17     0.07  -0.06   0.03     0.07  -0.10   0.10
    82   1    -0.01   0.03   0.10     0.05  -0.05   0.06     0.02  -0.09   0.06
    83   1    -0.00   0.00  -0.00    -0.00  -0.01   0.00    -0.01  -0.04  -0.00
    84   6     0.02  -0.00  -0.09     0.02   0.02  -0.09    -0.00   0.00  -0.01
    85   8     0.05  -0.03  -0.09     0.06  -0.00  -0.09     0.03   0.04  -0.02
    86   6     0.02   0.03  -0.12     0.01   0.07  -0.13    -0.02   0.01  -0.04
    87   1     0.02   0.04  -0.14     0.02   0.09  -0.16    -0.02   0.01  -0.04
    88   1    -0.00   0.05  -0.10    -0.01   0.10  -0.10    -0.04   0.02  -0.04
    89   6     0.02  -0.01  -0.03     0.02  -0.00  -0.01    -0.01  -0.02   0.03
    90   1     0.02  -0.02  -0.02     0.01  -0.00   0.01    -0.03  -0.04   0.08
    91   1     0.04  -0.02  -0.03     0.05  -0.01  -0.02     0.02   0.01   0.04
    92   7     0.01   0.00  -0.06    -0.00   0.01  -0.05    -0.03  -0.04   0.01
    93   6    -0.02   0.03  -0.06    -0.04   0.04  -0.05    -0.07  -0.08   0.01
    94   1    -0.01   0.05  -0.08    -0.02   0.06  -0.08    -0.08  -0.09   0.02
    95   1    -0.02   0.02  -0.04    -0.05   0.01  -0.03    -0.08  -0.08   0.03
    96   1    -0.04   0.05  -0.05    -0.08   0.06  -0.05    -0.08  -0.09  -0.03
    97   6     0.03   0.02  -0.14     0.03   0.05  -0.15     0.00   0.02  -0.06
    98   1     0.02   0.01  -0.11     0.00   0.02  -0.09    -0.02   0.01  -0.04
    99   1     0.06  -0.01  -0.16     0.08  -0.01  -0.20     0.04  -0.01  -0.08
   100   6    -0.00   0.01  -0.01     0.00   0.04   0.06    -0.00   0.02  -0.02
   101   9    -0.00   0.02   0.04     0.04   0.05   0.14     0.06   0.02   0.01
   102   9     0.00  -0.02  -0.04    -0.01  -0.03   0.05    -0.01  -0.04  -0.03
   103   9    -0.01   0.06  -0.04    -0.01   0.11   0.02    -0.04   0.03  -0.02
   104   6     0.00   0.13   0.01    -0.03  -0.05  -0.03     0.00  -0.00   0.01
   105   9     0.03   0.15  -0.08    -0.02  -0.05   0.06    -0.05  -0.03   0.01
   106   9    -0.01   0.08   0.06    -0.04   0.02  -0.07     0.03  -0.05   0.02
   107   9    -0.02   0.22   0.06    -0.04  -0.13  -0.07     0.04   0.00   0.02
   108   1     0.03   0.06  -0.16     0.03   0.12  -0.19     0.00   0.06  -0.09
                      4                      5                      6
                      A                      A                      A
 Frequencies --     32.5524                44.9245                48.2101
 Red. masses --      4.9229                 6.0076                 6.1486
 Frc consts  --      0.0031                 0.0071                 0.0084
 IR Inten    --      0.2461                 0.1015                 0.3742
  Atom AN      X      Y      Z        X      Y      Z        X      Y      Z
     1   6     0.00   0.03  -0.04     0.00   0.05   0.01    -0.01   0.01   0.00
     2   6     0.01  -0.00  -0.04    -0.01  -0.00   0.00     0.01  -0.02   0.01
     3   6     0.01   0.03  -0.04    -0.00  -0.03  -0.01     0.00  -0.04   0.02
     4   6     0.00   0.07  -0.04     0.01  -0.01  -0.01    -0.01  -0.05   0.02
     5   6    -0.00   0.08  -0.04     0.01   0.04   0.00    -0.01  -0.03   0.01
     6   6     0.01   0.01  -0.04     0.00   0.07   0.02    -0.02   0.05  -0.01
     7   6     0.01  -0.02  -0.04     0.01   0.04   0.01    -0.01   0.01  -0.02
     8   6     0.01  -0.02  -0.04     0.00   0.00   0.00    -0.03   0.08  -0.02
     9   6     0.01  -0.00  -0.04    -0.00   0.03   0.01    -0.04   0.17  -0.01
    10   6     0.01   0.01  -0.04    -0.00   0.06   0.02    -0.03   0.15  -0.00
    11   1     0.01  -0.03  -0.04    -0.02  -0.02   0.00     0.02  -0.01   0.01
    12   1    -0.00   0.11  -0.04     0.02  -0.02  -0.02    -0.01  -0.08   0.03
    13   1    -0.00   0.11  -0.04     0.02   0.05   0.00    -0.02  -0.04   0.01
    14   1     0.01  -0.03  -0.04     0.01   0.03   0.00    -0.00  -0.05  -0.03
    15   1     0.02  -0.00  -0.04    -0.01   0.01   0.01    -0.05   0.24  -0.01
    16   1     0.01   0.02  -0.04    -0.01   0.07   0.02    -0.04   0.21   0.01
    17   7     0.01  -0.00  -0.05    -0.00   0.03   0.01     0.00  -0.00   0.00
    18   7     0.01  -0.00  -0.04     0.01   0.07   0.02    -0.01  -0.00  -0.02
[...]
 00016162,0.00011371,-0.00003365,-0.00000796,-0.00001934,-0.00001518,-0
 .00001121,0.00001719,0.00000332,0.00000280,-0.00001775,-0.00000587,0.0
 0001250,0.00000204,-0.00000482,-0.00000590,-0.00001620,0.00000309,0.00
 000810,0.00000589,0.00000513,0.00000282,0.00000630,-0.00000528,0.00022
 126,-0.00003163,-0.00008679,-0.00005710,-0.00001456,0.00002755,-0.0000
 9160,0.00001687,-0.00001096,-0.00004405,0.00001739,0.00005293,-0.02028
 983,-0.11771654,0.08610971,0.01115590,-0.05623216,0.05172423,0.0030897
 7,0.01830821,-0.01059884,0.01093228,0.15285360,-0.00025146,0.00011621,
 0.00024906,0.00012149,0.00004675,0.00016161,0.00018940,-0.00002555,-0.
 00030163,-0.00020201,-0.00001284,0.00017228,0.00041897,0.00007240,-0.0
 0023389,-0.00056476,0.00009559,0.00002946,0.00521082,0.00160227,0.0017
 1672,0.00856577,0.01794958,-0.02930668,-0.00392607,-0.00092845,-0.0036
 4223,0.00135142,-0.00070418,0.00030145,-0.00001817,-0.00000025,-0.0000
 1692,0.00002961,0.00000736,-0.00000352,-0.00002738,0.00000704,0.000011
 77,-0.00033516,0.00008497,0.00081869,0.00159611,0.00069954,0.00191279,
 0.00028068,0.00006981,-0.00005177,0.00018832,-0.00002171,0.00007327,0.
 00104593,-0.00093522,-0.00183996,0.00017724,0.00006304,0.00040367,-0.0
 0012668,0.00014280,-0.00030683,0.00007540,-0.00023360,-0.00055669,0.00
 020294,0.00039096,-0.00013187,-0.00021866,0.00014983,0.00051954,-0.000
 15922,-0.00006663,0.00061779,-0.00030326,-0.00059184,0.00013054,0.0002
 1833,0.00040676,0.00002047,0.00015926,0.00025883,-0.00043482,-0.000183
 65,-0.00029204,0.00000091,0.00010133,-0.00004186,0.00014540,-0.0001521
 7,-0.00014964,-0.00001805,-0.00007328,-0.00024708,0.00003510,0.0001731
 9,0.00031995,0.00021403,0.00011969,0.00003791,0.00013532,-0.00007377,-
 0.00021177,-0.00043331,0.00001318,-0.00001239,-0.00004870,0.00002094,0
 .00002358,0.00004470,-0.00001012,0.00000233,0.00002154,0.00001313,0.00
 001249,-0.00004864,0.00001225,-0.00000850,-0.00008402,0.00002020,0.000
 01604,-0.00003332,-0.00001750,0.00002365,0.00001151,-0.00000392,-0.000
 01089,0.00001315,0.00012397,0.00011388,0.00030039,-0.00004908,0.000098
 96,-0.00012232,0.00000403,0.00001767,0.00017881,0.00002190,-0.00018199
 ,-0.00022565,0.00005960,0.00004509,0.00004203,-0.00003235,0.00001315,-
 0.00002978,-0.00000103,-0.00009587,-0.00003223,0.00003395,0.00006248,-
 0.00001770,-0.00003936,-0.00007203,0.00010319,0.00002806,0.00001703,-0
 .00001802,0.00001893,0.00012028,-0.00001212,-0.00002231,-0.00003413,-0
 .00006970,-0.00009792,-0.00006675,0.00011841,0.00001958,-0.00000401,0.
 00002739,-0.00000252,-0.00003554,-0.00009140,0.00010796,0.00008829,-0.
 00000299,0.00000853,0.00001070,-0.00003695,0.00000591,0.00000343,0.000
 01589,-0.00002350,-0.00000995,0.00000129,0.00001752,-0.00000013,-0.000
 02679,-0.00000162,0.00000485,-0.00001869,0.00002081,0.00000563,-0.0000
 1811,-0.00002677,-0.00000510,0.00000173,0.00001068,-0.00001497,0.00001
 729,0.00002322,0.00001337,-0.00001444,0.00001246,0.00003104,-0.0000093
 5,-0.00000659,-0.00001988,0.00001061,-0.00000914,-0.00001437,0.0000100
 3,-0.00001609,0.00002659,-0.00002220,-0.00000897,-0.00002784,-0.000003
 22,0.00001357,0.00003935,-0.00000961,0.00000805,-0.00001741,0.00002018
 ,0.00000229,0.00001676,-0.00000033,-0.00000792,-0.00000714,-0.00001090
 ,-0.00000927,-0.00001378,-0.00000065,0.00001967,0.00002121,0.00000413,
 0.00002833,-0.00000120,0.00001638,-0.00001352,-0.00000870,-0.00000351,
 0.00002580,0.00002029,0.00000111,-0.00001829,0.00000627,-0.00000434,0.
 00008362,-0.00000063,-0.00028665,-0.00032738,0.00014605,-0.00023481,0.
 00012219,-0.00018940,0.00016377,0.00002796,0.00001369,-0.00001117,0.00
 000581,-0.00001622,-0.00001551,0.00001123,-0.00000113,0.00001689,-0.00
 024812,0.00021556,0.00024142,0.00000091,-0.00004890,-0.00000977,-0.000
 02374,-0.00000283,-0.00004802,0.00035945,-0.00017123,-0.00000652,0.000
 02420,0.00003335,0.00006722,0.00002534,-0.00004052,-0.00001456,-0.0000
 1227,0.00003158,0.00001874,-0.00001358,0.00000518,-0.00000218,0.000011
 95,0.00003255,-0.00000500,-0.00002372,-0.00000876,-0.00000753,-0.00001
 379,-0.00001119,0.00001125,-0.00068882,-0.00009748,0.00028824,0.000189
 29,0.00014333,-0.00010754,0.00026519,-0.00001446,0.00002199,0.00013509
 ,-0.00000962,-0.00014847,0.03975318,0.08740467,-0.25295627,-0.01017800
 ,0.03625841,-0.00429678,-0.02365771,0.00063276,-0.07246517,-0.01974392
 ,-0.14254262,0.35946503,-0.00000111,-0.00004132,-0.00000557,-0.0000362
 6,-0.00005742,-0.00003232,0.00001470,-0.00000117,-0.00003830,0.0000085
 5,-0.00003014,0.00001145,0.00000408,0.00000619,0.00000086,0.00003934,-
 0.00001266,-0.00001178,-0.00000727,-0.00000720,0.00002160,-0.00002438,
 -0.00000472,-0.00002723,0.00003588,0.00000397,0.00001942,-0.00002650,0
 .00000137,0.00001650,-0.00001269,-0.00002751,0.00001261,-0.00000259,0.
 00000938,0.00001592,-0.00000021,-0.00000183,0.00000015,0.00000541,-0.0
 0000402,-0.00000262,0.00000061,-0.00000101,0.00000077,0.00000268,-0.00
 000244,0.00000018,-0.00002708,-0.00000672,-0.00003020,0.00002406,0.000
 00511,-0.00006331,-0.00012830,0.00013755,0.00009726,-0.00008920,0.0000
 6648,-0.00003672,-0.00010674,-0.00002095,-0.00002137,0.00006485,0.0001
 2151,-0.00003650,0.00019155,-0.00008873,0.00007964,0.00015224,-0.00008
 395,0.00001503,-0.00006161,-0.00012321,-0.00000341,0.00005813,0.000113
 33,0.00001604,-0.00009086,0.00006720,0.00002531,0.00003765,-0.00002276
 ,0.00001129,0.00003060,-0.00004001,-0.00000575,-0.00004132,-0.00003467
 ,-0.00000409,-0.00001306,-0.00004933,0.00000868,0.00002969,0.00002276,
 0.00002761,0.00006601,0.00002565,0.00002995,-0.00010589,-0.00000679,-0
 .00007965,-0.00000381,0.00000395,0.00000069,0.00000275,-0.00000064,0.0
 0000010,-0.00000456,0.00000334,0.00000088,0.00000123,-0.00000168,-0.00
 000271,-0.00000333,0.00000623,0.00000160,0.00000151,-0.00000228,-0.000
 00118,-0.00000312,0.00000634,0.00000039,0.00000080,-0.00000399,-0.0000
 0009,-0.00000766,0.00000325,-0.00000243,-0.00000709,0.00000172,-0.0000
 0097,0.00000593,-0.00000095,0.00000051,0.00000320,-0.00000157,-0.00000
 043,-0.00000418,0.00000136,0.00000011,-0.00000438,0.00000361,-0.000000
 55,0.00000156,-0.00000140,0.00000149,0.00000238,0.00000029,-0.00000028
 ,0.00001234,-0.00001539,-0.00000778,-0.00000221,0.00001634,0.00000677,
 0.00000068,0.00000333,0.00000185,-0.00001241,-0.00000294,-0.00000510,-
 0.00000169,0.00000016,-0.00000194,-0.00000106,0.00000368,-0.00000008,-
 0.00000461,-0.00000307,-0.00000333,0.00000046,0.00000082,0.00000300,-0
 .00000158,-0.00001052,0.00000086,0.00000283,0.00000958,0.00000194,-0.0
 0000898,-0.00000197,-0.00000201,0.00000459,0.00000301,-0.00000141,-0.0
 0001007,-0.00000272,-0.00000279,0.00000398,0.00000042,-0.00000069,-0.0
 0000935,0.00000077,-0.00000398,0.00000309,-0.00000103,0.00000207,0.000
 00131,0.00000782,0.00000038,0.00000315,0.00000722,-0.00000094,0.000000
 23,-0.00000362,0.00000102,-0.00000300,-0.00000512,0.00000213,0.0000025
 4,0.00000814,-0.00000273,-0.00000064,-0.00000329,-0.00000035,-0.000000
 04,0.00000811,0.00000011,0.00000182,-0.00000337,0.00000078,0.00000602,
 0.00000283,0.00000006,-0.00000242,-0.00000127,-0.00000319,-0.00000077,
 -0.00000212,0.00000016,0.00000254,0.00000657,0.00000066,0.00001181,0.0
 0000147,0.00000205,-0.00000526,-0.00000165,-0.00000184,0.00000632,0.00
 000768,0.00000079,-0.00000810,-0.00000164,0.00000118,0.00000451,-0.000
 03813,-0.00000460,-0.00137598,-0.00018294,-0.00417376,-0.00006726,0.00
 029335,-0.00042105,-0.01984327,0.00599726,0.01479129,0.00072640,-0.000
 56455,0.00042021,0.00085636,0.00033719,0.00006688,0.00007952,-0.000135
 69,-0.00054956,-0.00017855,0.00007555,0.00003258,0.00004048,0.00002578
 ,0.00000034,-0.00209656,0.00068651,0.00087470,-0.00002549,0.00001424,0
 .00051193,0.00003485,-0.00004878,-0.00001870,-0.00001537,-0.00001490,-
 0.00006532,0.00002832,0.00004546,-0.00006543,-0.22292848,0.05520507,0.
 11428513,0.00587597,-0.00161020,-0.00406026,-0.00345166,0.00122839,0.0
 0104069,-0.00032491,0.00018164,0.00027736,0.00006766,-0.00003272,-0.00
 005345,0.00011140,-0.00003690,-0.00002354,0.00006443,-0.00003221,-0.00
 017282,0.00008353,-0.00000454,-0.00005220,-0.00002895,0.00001759,0.000
 01330,-0.00002253,-0.00000142,0.00000676,-0.00002112,-0.00000863,0.000
 02866,0.24244298,-0.00001620,0.00000714,0.00004173,-0.00010124,-0.0000
 1039,-0.00008816,0.00009576,-0.00008886,-0.00000696,0.00002484,-0.0000
 5382,0.00009267,-0.00002951,-0.00001374,0.00004603,-0.00002932,-0.0000
 0598,0.00002518,-0.00000582,0.00000068,-0.00000599,0.00002137,0.000005
 70,0.00000019,-0.00001037,-0.00000144,0.00000421,0.00002080,0.00000221
 ,-0.00001055,0.00002139,0.00000855,-0.00000952,0.00001565,0.00003757,0
 .00000358,-0.00000094,0.00000175,-0.00000199,-0.00000118,0.00000060,-0
 .00000158,0.00000106,0.00000009,-0.00000147,-0.00000275,-0.00000103,0.
 00000474,0.00000114,0.00000834,-0.00002881,0.00001711,0.00000206,-0.00
 000971,0.00002484,-0.00000935,0.00000574,0.00003136,-0.00002561,0.0000
 1702,0.00003041,0.00001408,0.00001253,-0.00003154,-0.00005373,0.000027
 54,-0.00004464,-0.00000370,-0.00003459,-0.00005391,0.00003605,-0.00001
 475,0.00002281,0.00006925,-0.00003972,-0.00001559,-0.00006108,0.000005
 92,0.00003179,-0.00002542,-0.00000380,-0.00001476,0.00000943,-0.000005
 21,-0.00001021,0.00001386,0.00000142,0.00002702,0.00001549,-0.00000303
 ,0.00000836,0.00003499,-0.00000663,-0.00000835,-0.00000842,-0.00000889
 ,-0.00001471,-0.00000351,-0.00000675,0.00002413,0.00001061,0.00002742,
 0.00000089,-0.00000173,-0.00000003,-0.00000095,-0.00000003,-0.00000024
 ,0.00000156,-0.00000085,-0.00000027,-0.00000019,0.00000050,0.00000132,
 0.00000140,-0.00000262,-0.00000040,-0.00000020,0.00000074,0.00000098,0
 .00000090,-0.00000224,-0.00000009,-0.00000009,0.00000146,-0.00000061,0
 .00000307,-0.00000173,0.00000038,0.00000258,-0.00000059,0.00000053,-0.
 00000194,0.00000013,-0.00000058,-0.00000131,0.00000075,0.00000084,0.00
 000191,-0.00000041,-0.00000018,0.00000166,-0.00000134,0.00000019,-0.00
 000073,0.00000057,-0.00000007,-0.00000098,-0.00000022,-0.00000002,-0.0
 0000066,0.00000305,0.00000210,0.00000016,-0.00000275,-0.00000103,-0.00
 000038,-0.00000115,-0.00000029,0.00000192,0.00000144,0.00000098,0.0000
 0088,0.00000098,0.00000087,0.00000003,-0.00000101,-0.00000023,0.000001
 46,0.00000095,0.00000092,-0.00000039,-0.00000043,-0.00000058,0.0000010
 9,0.00000146,-0.00000086,-0.00000027,-0.00000143,0.00000006,0.00000143
 ,0.00000098,0.00000064,-0.00000095,-0.00000022,0.00000098,0.00000267,0
 .00000008,-0.00000008,-0.00000101,0.00000011,0.00000080,0.00000212,-0.
 00000009,0.00000105,-0.00000093,0.00000022,-0.00000085,-0.00000348,-0.
 00000700,0.00000056,-0.00000017,-0.00000602,0.00000062,-0.00000080,0.0
 0000363,0.00000152,0.00000601,0.00000688,-0.00000523,-0.00000205,-0.00
 000481,0.00000200,0.00000002,0.00000209,0.00000135,0.00000037,-0.00000
 427,-0.00000024,-0.00000093,0.00000154,-0.00000066,-0.00000378,-0.0000
 0027,0.00000153,0.00000198,-0.00000012,0.00000231,-0.00000082,0.000001
 63,0.00000006,-0.00000079,-0.00000316,-0.00000077,-0.00001274,0.000004
 89,0.00000151,0.00000477,-0.00000213,0.00000392,-0.00000198,-0.0000079
 6,0.,0.00000899,0.00000316,-0.00000576,-0.00000599,0.00000444,0.000007
 32,-0.00011208,0.00065601,0.00043264,0.00002519,0.00059743,0.00006413,
 0.00146183,-0.00155850,-0.00112716,-0.00021832,0.00019501,0.00035696,0
 .00005315,-0.00016551,-0.00022984,0.00000941,-0.00004410,0.00003538,0.
 00001942,-0.00000114,0.00000280,-0.00000938,0.00000488,0.00000663,0.00
 024208,0.00007604,-0.00005421,-0.00000956,0.00000967,-0.00008247,-0.00
 001081,0.00001076,-0.00001309,-0.00000251,-0.00001007,0.00000878,0.000
 00236,-0.00003058,0.00001250,0.05561831,-0.06612458,-0.03577866,0.0233
 7295,-0.00612273,-0.01374788,-0.01915653,0.00719943,0.01053467,0.00057
 506,-0.00008640,-0.00068421,-0.00009264,0.00009969,0.00009477,-0.00017
 278,0.00008055,0.00014148,-0.00026626,0.00040262,0.00029617,-0.0000491
 5,-0.00000073,0.00002162,0.00001727,-0.00000916,-0.00000609,0.00001421
 ,0.00000274,0.00000024,0.00001082,0.00000396,-0.00001290,-0.06135417,0
 .06491528,-0.00004405,0.00002618,0.00002283,-0.00005532,-0.00002742,-0
 .00004627,0.00004181,-0.00008490,-0.00005940,0.00003213,-0.00001224,0.
 00007036,-0.00000872,-0.00001811,0.00003652,-0.00002585,-0.00000044,0.
 00002392,-0.00000832,0.00000139,-0.00000698,0.00002332,0.00000610,-0.0
 0000071,-0.00001136,-0.00000328,0.00001065,0.00001853,-0.00000249,-0.0
 0001164,0.00000010,0.00000655,-0.00000298,0.00002020,0.00003191,0.0000
 0823,0.00000009,0.00001112,0.00000494,-0.00000148,-0.00000028,-0.00000
 394,0.00000007,0.00000114,-0.00000097,-0.00000232,0.00000486,0.0000094
 4,-0.00001712,0.00000421,-0.00001626,0.00002034,0.00000549,-0.00002563
 ,-0.00001635,0.00001510,0.00003824,0.00003194,-0.00002318,0.00001598,0
 .00002416,0.00002373,0.00001064,-0.00000819,-0.00003049,0.00001609,-0.
 00002222,-0.00004421,-0.00001135,-0.00005008,0.00003485,-0.00001675,0.
 00000750,0.00004067,-0.00003389,0.00000118,-0.00004309,0.00000702,0.00
 003274,-0.00002445,-0.00000104,-0.00001796,0.00001007,-0.00000461,-0.0
 0001206,0.00001210,0.00000128,0.00000513,0.00001085,0.00000077,0.00000
 425,0.00002933,-0.00000275,-0.00000710,-0.00000766,-0.00000623,-0.0000
 1511,-0.00000357,-0.00000674,0.00002562,0.00001408,0.00001428,0.000000
 83,-0.00000100,0.00000053,-0.00000055,0.00000043,-0.00000032,0.0000016
 0,-0.00000113,-0.00000058,-0.00000055,0.00000047,0.00000133,0.00000073
 ,-0.00000203,-0.00000048,-0.00000092,0.00000084,0.00000043,0.00000154,
 -0.00000236,-0.00000036,-0.00000012,0.00000171,0.00000048,0.00000308,-
 0.00000153,-0.00000069,0.00000303,-0.00000097,0.00000098,-0.00000196,0
 .00000004,-0.00000094,-0.00000169,0.00000126,0.00000106,0.00000156,-0.
 00000104,-0.00000055,0.00000218,-0.00000136,0.00000063,-0.00000106,0.0
 0000087,-0.00000017,-0.00000110,0.00000040,0.,0.00000097,-0.00000043,0
 .00000004,-0.00000044,-0.00000016,-0.00000093,-0.00000190,-0.00000065,
 -0.00000013,0.00000072,0.00000179,0.00000157,0.00000123,0.00000046,-0.
 00000025,-0.00000025,-0.00000082,-0.00000029,0.00000116,0.00000116,0.0
 0000142,-0.00000055,-0.00000061,-0.00000086,0.00000051,0.00000177,0.00
 000065,-0.00000073,-0.00000173,0.00000040,0.00000261,0.00000087,0.0000
 0018,-0.00000172,-0.00000028,-0.00000024,0.00000119,-0.00000065,0.0000
 0054,-0.00000133,-0.00000018,-0.00000014,0.00000249,0.00000052,0.00000
 070,-0.00000135,0.00000003,-0.00000062,-0.00000542,-0.00000139,0.00000
 142,0.00000033,-0.00000506,0.00000169,0.00000048,0.00000315,0.00000005
 ,0.00000487,0.00000335,-0.00000307,0.00000021,-0.00000222,-0.00000030,
 0.00000011,0.00000184,0.00000022,-0.00000026,-0.00000378,0.00000050,0.
 00000036,0.00000085,-0.00000010,0.00000189,-0.00000002,0.00000043,0.00
 000036,0.00000070,0.00000151,0.00000132,-0.00000075,-0.00000022,-0.000
 00133,-0.00000161,-0.00000084,-0.00000393,0.00000600,-0.00000374,0.000
 00125,0.00000052,0.00000079,-0.00000114,-0.00000429,-0.00000040,0.0000
 0340,-0.00000138,0.00000148,-0.00000539,-0.00000269,0.00000214,-0.0029
 4616,0.00018074,-0.00602140,0.00215260,-0.00037528,0.00157540,-0.01968
 276,0.00592871,0.01158560,0.00097557,-0.00021381,0.00080078,0.00096453
 ,0.00010578,0.00070305,-0.00012328,0.00000035,-0.00027916,-0.00007529,
 0.00003180,0.00004326,-0.00001673,-0.00000331,0.00003069,-0.00112238,0
 .00037162,0.00131240,0.00008912,-0.00001041,0.00021382,0.00001550,-0.0
 0004461,0.00000212,0.00000740,-0.00000673,-0.00002216,0.00000182,0.000
 02323,0.00000453,0.11506334,-0.03566033,-0.12160904,0.01086951,-0.0016
 6934,-0.00757717,0.01647718,-0.00830811,-0.01031967,0.00036396,0.00021
 048,0.00001644,-0.00006161,-0.00004526,0.00000728,-0.00016568,0.000021
 43,-0.00001385,-0.00006473,-0.00017019,-0.00006412,-0.00006651,0.00000
 290,0.00002435,0.00002327,-0.00001328,-0.00000747,0.00002006,0.0000036
 1,0.00000157,0.00001482,0.00000348,-0.00001437,-0.12268536,0.03968368,
 0.12956911\\-0.00000044,0.00000155,0.00000187,0.00000765,-0.00000461,0
 .00000646,-0.00000820,-0.00000086,-0.00001112,0.00000842,0.00000180,0.
 00000009,-0.00000527,-0.00000399,0.00000403,-0.00000260,-0.00000053,0.
 00000108,0.00000731,-0.00000197,0.00000059,-0.00000057,0.00000297,-0.0
 0000015,0.00000402,0.00000363,-0.00000399,-0.00000042,0.00000168,0.000
 00431,-0.00000142,-0.00000118,-0.00000035,0.00000052,-0.00000086,-0.00
 000160,0.00000143,0.00000084,-0.00000485,0.00000095,0.00000205,0.00000
 037,0.00000021,0.00000006,0.00000168,0.00000017,-0.00000190,0.00000052
 ,0.00000261,0.00000161,-0.00000647,-0.00001050,0.00000040,-0.00000652,
 0.00000313,-0.00001442,-0.00000015,0.00000184,-0.00000094,-0.00000202,
 0.00000007,0.00000093,0.00000712,-0.00000168,-0.00000044,-0.00000244,0
 .00000044,-0.00000454,-0.00000745,0.00000333,0.00000274,-0.00000018,0.
 00000536,0.00000820,0.00000930,-0.00000086,0.00000564,-0.00000513,-0.0
 0000234,0.00000270,0.00000032,0.00000541,0.00000155,0.00000350,-0.0000
 0333,0.00000942,0.00000343,-0.00000645,-0.00000533,-0.00000393,0.00000
 285,-0.00001005,0.00000440,-0.00000258,0.00000514,-0.00000162,0.000000
 22,0.00000283,-0.00000341,0.00000071,0.00000260,0.00000579,0.00000345,
 -0.00000067,0.00000531,-0.00000088,0.00000271,0.00000079,0.00000052,0.
 00000044,0.00000042,0.00000072,0.00000096,-0.00000148,-0.00000550,-0.0
 0000157,-0.00000561,0.00000022,0.00000080,0.00000104,0.00000316,-0.000
 00084,0.00000042,0.00000443,-0.00000012,0.00000207,0.00000076,0.000002
 41,0.00000440,-0.00000265,0.00000141,0.00000074,-0.00000065,-0.0000023
 4,-0.00000340,0.00000108,0.00000359,0.00000025,0.00000164,-0.00000171,
 -0.00000209,0.00000185,0.00000202,0.00000098,0.00000015,0.00000164,0.0
 0000098,0.00000067,0.00000057,-0.00000002,-0.00000812,-0.00000376,0.00
 000478,0.00000072,0.00000082,0.00000148,-0.00000022,-0.00000001,-0.000
 00291,0.00000088,0.00000382,0.00000394,-0.00000528,-0.00000230,-0.0000
 0115,-0.00000018,0.00000244,0.00000066,0.00000124,0.00000294,0.0000034
 2,0.00000112,0.00000219,0.00000131,0.00000152,0.00000235,-0.00000053,-
 0.00000224,0.00000030,0.00000044,-0.00000339,-0.00000013,0.00000009,-0
 .00000312,-0.00000010,0.00000200,0.00000226,0.00000018,0.00000159,-0.0
 0000204,-0.00000083,0.00000152,-0.00000411,0.00000169,0.00000063,-0.00
 000131,-0.00000134,0.00000095,0.00000108,0.00000366,-0.00000118,0.0000
 0176,-0.00000072,-0.00000235,0.00000076,-0.00000114,0.00000180,0.00000
 264,-0.00000557,-0.00000348,-0.00000419,0.00000421,0.00000096,0.000002
 89,-0.00000088,-0.00000110,0.00000188,-0.00000286,-0.00000051,0.000003
 83,0.00000039,-0.00000047,0.00000922,-0.00000364,-0.00000919,0.0000009
 4,-0.00000007,0.00000410,-0.00000297,0.00000096,0.00000192,0.00000044,
 0.00000042,-0.00000094,0.00000398,0.00000637,-0.00000536,-0.00000048,-
 0.00000099,0.00000049,0.00000119,-0.00000301,-0.00000068,0.00000151,-0
 .00000330,0.00000197,-0.00000144,0.00000293,0.00000002,0.00000946,-0.0
 0000748,0.00001301,-0.00000167,0.00000253,-0.00000979,-0.00000824,0.00
 000047,-0.00000020,-0.00000054,-0.00000223,-0.00000045,0.00000100,0.00
 000125,-0.00000282,0.00000574,-0.00000197,0.00000192,-0.00000555,-0.00
 000070,-0.00000024,-0.00000099,0.00000053,-0.00000414,-0.00001340,0.00
 000384,-0.00000406,0.00000057,-0.00000552,0.00000166,-0.00000473,0.000
 00458,-0.00000003,-0.00000120,-0.00000106,0.00000073,-0.00000055,-0.00
 000137,-0.00000121,-0.00000356,-0.00000778,0.00000164,-0.00000012,0.00
 000426,0.00000135,-0.00000191,-0.00000190,0.00000027,-0.00000716,0.000
 00317,0.00000111,-0.00000049,-0.00000700,0.00000031,0.00000764,-0.0000
 0313,0.00000008,-0.00000088,-0.00000142,-0.00000269,-0.00000730,0.0000
 0315,-0.00000193,0.00000500,-0.00000203,-0.00000212,0.00000110,0.00000
 471,0.00000016,0.00000232,-0.00000213,0.00000926,0.00000579,-0.0000038
 1,-0.00000428\\\@
 The archive entry for this job was punched.


 THOSE WITH THE GOLD MAKE THE RULES.

             -- PETER'S GOLDEN RULE
 Job cpu time:       1 days 20 hours 40 minutes 12.5 seconds.
 Elapsed time:       0 days  2 hours 50 minutes 46.0 seconds.
 File lengths (MBytes):  RWF=   9700 Int=      0 D2E=      0 Chk=     55 Scr=      1
 Normal termination of Gaussian 16 at Sat Dec  7 21:44:04 2024.
