/mnt/lustre/scratch/nvme/SLURM/9663626/usccqdma.eoSSX2FMqL
OMP_STACKSIZE=0m
GAUSS_PDEF=16
GAUSS_MDEF=65536MB
GAUSS_RDEF=SCF=Direct
 Entering Gaussian System, Link 0=g16.exe
 Initial command:
 /opt/cesga/2020/software/Core/g16/c1/l1.exe "/mnt/lustre/scratch/nvme/SLURM/9663626/usccqdma.eoSSX2FMqL/Gau-2481794.inp" -scrdir="/mnt/lustre/scratch/nvme/SLURM/9663626/usccqdma.eoSSX2FMqL/"
 Default is to use a total of  16 processors:
                               16 via shared-memory
                                1 via Linda
 Entering Link 1 = /opt/cesga/2020/software/Core/g16/c1/l1.exe PID=   2481820.
  
 Copyright (c) 1988-2019, Gaussian, Inc.  All Rights Reserved.
  
 This is part of the Gaussian(R) 16 program.  It is based on
 the Gaussian(R) 09 system (copyright 2009, Gaussian, Inc.),
 the Gaussian(R) 03 system (copyright 2003, Gaussian, Inc.),
 the Gaussian(R) 98 system (copyright 1998, Gaussian, Inc.),
 the Gaussian(R) 94 system (copyright 1995, Gaussian, Inc.),
 the Gaussian 92(TM) system (copyright 1992, Gaussian, Inc.),
 the Gaussian 90(TM) system (copyright 1990, Gaussian, Inc.),
 the Gaussian 88(TM) system (copyright 1988, Gaussian, Inc.),
 the Gaussian 86(TM) system (copyright 1986, Carnegie Mellon
 University), and the Gaussian 82(TM) system (copyright 1983,
 Carnegie Mellon University). Gaussian is a federally registered
 trademark of Gaussian, Inc.
  
 This software contains proprietary and confidential information,
 including trade secrets, belonging to Gaussian, Inc.
  
 This software is provided under written license and may be
 used, copied, transmitted, or stored only in accord with that
 written license.
  
 The following legend is applicable only to US Government
 contracts under FAR:
  
                    RESTRICTED RIGHTS LEGEND
  
 Use, reproduction and disclosure by the US Government is
 subject to restrictions as set forth in subparagraphs (a)
 and (c) of the Commercial Computer Software - Restricted
 Rights clause in FAR 52.227-19.
  
 Gaussian, Inc.
 340 Quinnipiac St., Bldg. 40, Wallingford CT 06492
  
  
 ---------------------------------------------------------------
 Warning -- This program may not be used in any manner that
 competes with the business of Gaussian, Inc. or will provide
 assistance to any competitor of Gaussian, Inc.  The licensee
 of this program is prohibited from giving any competitor of
 Gaussian, Inc. access to this program.  By using this program,
 the user acknowledges that Gaussian, Inc. is engaged in the
 business of creating and licensing software in the field of
 computational chemistry and represents and warrants to the
 licensee that it is not a competitor of Gaussian, Inc. and that
 it will not use this program in any manner prohibited above.
 ---------------------------------------------------------------
  

 Cite this work as:
 Gaussian 16, Revision C.01,
 M. J. Frisch, G. W. Trucks, H. B. Schlegel, G. E. Scuseria, 
 M. A. Robb, J. R. Cheeseman, G. Scalmani, V. Barone, 
 G. A. Petersson, H. Nakatsuji, X. Li, M. Caricato, A. V. Marenich, 
 J. Bloino, B. G. Janesko, R. Gomperts, B. Mennucci, H. P. Hratchian, 
 J. V. Ortiz, A. F. Izmaylov, J. L. Sonnenberg, D. Williams-Young, 
 F. Ding, F. Lipparini, F. Egidi, J. Goings, B. Peng, A. Petrone, 
 T. Henderson, D. Ranasinghe, V. G. Zakrzewski, J. Gao, N. Rega, 
 G. Zheng, W. Liang, M. Hada, M. Ehara, K. Toyota, R. Fukuda, 
 J. Hasegawa, M. Ishida, T. Nakajima, Y. Honda, O. Kitao, H. Nakai, 
 T. Vreven, K. Throssell, J. A. Montgomery, Jr., J. E. Peralta, 
 F. Ogliaro, M. J. Bearpark, J. J. Heyd, E. N. Brothers, K. N. Kudin, 
 V. N. Staroverov, T. A. Keith, R. Kobayashi, J. Normand, 
 K. Raghavachari, A. P. Rendell, J. C. Burant, S. S. Iyengar, 
 J. Tomasi, M. Cossi, J. M. Millam, M. Klene, C. Adamo, R. Cammi, 
 J. W. Ochterski, R. L. Martin, K. Morokuma, O. Farkas, 
 J. B. Foresman, and D. J. Fox, Gaussian, Inc., Wallingford CT, 2019.
 
 ******************************************
 Gaussian 16:  ES64L-G16RevC.01  3-Jul-2019
                 7-Dec-2024 
 ******************************************
 Default route: SCF=Direct
 ----------------------------------------------------
 # m06/genecp scf=tight int=ultrafine 5d freq=noraman
 ----------------------------------------------------
 1/10=4,30=1,38=1/1,3;
 2/12=2,17=6,18=5,40=1/2;
 3/5=7,8=1,11=2,16=1,17=8,25=1,30=1,71=2,74=-54,75=-5,140=1/1,2,3;
 4//1;
 5/5=2,32=2,38=5,98=1/2;
 8/6=4,10=90,11=11/1;
 11/6=1,8=1,9=11,15=111,16=1/1,2,10;
 10/6=1/2;
 6/7=2,8=2,9=2,10=2,28=1/1;
 7/8=1,10=1,25=1/1,2,3,16;
 1/10=4,30=1/3;
 99//99;
 ------
 OPT-TS
 ------
 Symbolic Z-matrix:
 Charge =  0 Multiplicity = 1
 C                     1.58428  -2.31066   0.78731 
 C                     2.98313  -0.47282   0.65714 
 C                     4.08116  -1.22399   1.05127 
 C                     3.90204  -2.57251   1.34625 
 C                     2.63664  -3.11867   1.21914 
 C                     0.21691  -2.81798   0.58624 
 C                    -1.8934   -2.38814  -0.26954 
 C                    -2.39284  -3.56614   0.25525 
 C                    -1.54106  -4.40642   0.96749 
 C                    -0.22119  -4.02822   1.12834 
 H                     3.05225   0.59697   0.46147 
 H                     4.74743  -3.18782   1.64801 
 H                     2.48113  -4.17757   1.40604 
 H                    -2.53363  -1.67545  -0.78793 
 H                    -1.91706  -5.33134   1.40189 
 H                     0.45668  -4.65041   1.70629 
 N                     1.7697   -1.00487   0.51658 
 N                    -0.61877  -2.01911  -0.10561 
 Ir                    0.04019   0.07117  -0.48748 
 O                    -1.41618  -0.52107   2.14812 
 O                    -2.91801   0.40562  -1.00187 
 O                     1.52584   2.25903   0.9529 
 B                    -1.62454   0.81044  -1.3674 
 B                    -1.0781    0.47637   1.23819 
 B                     0.5568    2.0073   -0.02089 
 O                     0.14096   3.18806  -0.60303 
 O                    -1.66403   1.67816   1.6084 
 C                    -2.26906   1.50976   2.89962 
 C                    -2.49662  -0.02783   2.95875 
 C                     1.92783   3.63266   0.82483 
 C                     0.68418   4.2816    0.14745 
 C                    -3.84066   0.94432  -1.96222 
 C                    -3.04949   2.16798  -2.49586 
 O                    -1.69562   1.69829  -2.42712 
 C                    -2.39375  -0.63944   4.34111 
 H                    -2.55421  -1.72356   4.27581 
 H                    -1.40764  -0.4712    4.78777 
 H                    -3.15984  -0.2244    5.01204 
 C                    -3.79046  -0.47254   2.28699 
 H                    -3.862    -0.07408   1.2649 
 H                    -3.79435  -1.56996   2.22303 
 H                    -4.67727  -0.1664    2.85838 
 C                    -1.26499   1.99886   3.93632 
 H                    -0.32328   1.43801   3.865 
 H                    -1.03962   3.05716   3.75026 
 H                    -1.65486   1.91436   4.95953 
 C                    -3.52831   2.35048   2.94972 
 H                    -4.06538   2.20654   3.89847 
 H                    -3.26502   3.41355   2.86472 
 H                    -4.20423   2.10565   2.12205 
 C                    -4.07065  -0.12873  -3.01877 
 H                    -3.13767  -0.36985  -3.54601 
 H                    -4.4312   -1.04177  -2.52571 
 H                    -4.82235   0.1761   -3.7593 
 C                    -5.14206   1.26644  -1.25744 
 H                    -5.84868   1.7619   -1.9388 
 H                    -5.60778   0.33683  -0.90153 
 H                    -4.97756   1.91633  -0.38987 
 C                    -3.37048   2.56448  -3.92138 
 H                    -4.43079   2.83821  -4.02227 
 H                    -2.76687   3.43511  -4.20739 
 H                    -3.14865   1.7549   -4.62573 
 C                    -3.14518   3.37794  -1.57234 
 H                    -2.37418   4.10027  -1.87013 
 H                    -4.12971   3.86254  -1.63193 
 H                    -2.94214   3.09601  -0.52829 
 C                    -0.37841   4.72704   1.14233 
 H                    -0.63326   3.91105   1.8277 
 H                    -0.05828   5.60686   1.71704 
 H                    -1.29047   4.98658   0.58839 
 C                     0.99921   5.41914  -0.80483 
 H                     0.06628   5.80275  -1.23788 
 H                     1.49313   6.24781  -0.27676 
 H                     1.64166   5.09565  -1.63105 
 C                     3.16456   3.64957  -0.06544 
 H                     3.59412   4.65569  -0.1614 
 H                     3.93116   2.99321   0.3707 
 H                     2.92689   3.27723  -1.07209 
 C                     2.26925   4.17587   2.19699 
 H                     2.49588   5.25071   2.14829 
 H                     1.44622   4.02185   2.90379 
 H                     3.15447   3.66061   2.59199 
 H                     0.79507   0.87491  -1.69393 
 C                     3.06118  -1.77539  -2.34394 
 O                     2.45186  -2.79198  -2.0246 
 C                     4.58094  -1.76349  -2.43094 
 H                     4.88325  -1.47633  -3.45029 
 H                     4.98099  -0.97159  -1.77704 
 C                     0.97753  -0.53219  -2.54517 
 H                     0.57456  -0.00315  -3.41736 
 H                     0.59035  -1.5533   -2.54452 
 N                     2.41967  -0.60493  -2.6477 
 C                     3.12392   0.64067  -2.86414 
 H                     3.43806   1.11407  -1.91694 
 H                     4.0118    0.50185  -3.48942 
 H                     2.45793   1.33899  -3.38438 
 C                     5.18237  -3.10694  -2.06856 
 H                     4.89513  -3.40422  -1.05271 
 H                     4.8237   -3.89229  -2.74273 
 C                     5.42352  -0.57571   1.1782 
 F                     5.5373    0.47527   0.35336 
 F                     5.64633  -0.13267   2.41832 
 F                     6.40572  -1.43265   0.87922 
 C                    -3.83652  -3.9269    0.10523 
 F                    -3.98464  -5.05516  -0.59784 
 F                    -4.3948   -4.14274   1.30477 
 F                    -4.5384   -2.96836  -0.50228 
 H                     6.27691  -3.06885  -2.12133 
 

 GradGradGradGradGradGradGradGradGradGradGradGradGradGradGradGradGradGrad
 Berny optimization.
 Initialization pass.
 Trust Radius=3.00D-01 FncErr=1.00D-07 GrdErr=1.00D-07 EigMax=2.50D+02 EigMin=1.00D-04
 Number of steps in this run=      2 maximum allowed number of steps=      2.
 GradGradGradGradGradGradGradGradGradGradGradGradGradGradGradGradGradGrad

 Stoichiometry    C35H53B3F6IrN3O7
 Framework group  C1[X(C35H53B3F6IrN3O7)]
 Deg. of freedom   318
 Full point group                 C1      NOp   1
 Largest Abelian subgroup         C1      NOp   1
 Largest concise Abelian subgroup C1      NOp   1
                         Standard orientation:                         
 ---------------------------------------------------------------------
 Center     Atomic      Atomic             Coordinates (Angstroms)
 Number     Number       Type             X           Y           Z
 ---------------------------------------------------------------------
      1          6           0        1.584282   -2.310658    0.787310
      2          6           0        2.983130   -0.472817    0.657140
      3          6           0        4.081161   -1.223987    1.051270
      4          6           0        3.902042   -2.572507    1.346250
      5          6           0        2.636642   -3.118668    1.219140
      6          6           0        0.216912   -2.817979    0.586240
      7          6           0       -1.893398   -2.388141   -0.269540
      8          6           0       -2.392838   -3.566141    0.255250
      9          6           0       -1.541057   -4.406420    0.967490
     10          6           0       -0.221187   -4.028219    1.128340
     11          1           0        3.052250    0.596973    0.461470
     12          1           0        4.747432   -3.187816    1.648010
     13          1           0        2.481133   -4.177568    1.406040
     14          1           0       -2.533629   -1.675451   -0.787930
     15          1           0       -1.917056   -5.331341    1.401890
     16          1           0        0.456683   -4.650409    1.706290
     17          7           0        1.769701   -1.004868    0.516580
     18          7           0       -0.618769   -2.019110   -0.105610
     19         77           0        0.040190    0.071171   -0.487480
     20          8           0       -1.416180   -0.521070    2.148120
     21          8           0       -2.918010    0.405619   -1.001870
     22          8           0        1.525839    2.259032    0.952900
     23          5           0       -1.624540    0.810440   -1.367400
     24          5           0       -1.078100    0.476370    1.238190
     25          5           0        0.556799    2.007301   -0.020890
     26          8           0        0.140958    3.188061   -0.603030
     27          8           0       -1.664031    1.678160    1.608400
     28          6           0       -2.269061    1.509759    2.899620
     29          6           0       -2.496620   -0.027831    2.958750
     30          6           0        1.927828    3.632662    0.824830
     31          6           0        0.684177    4.281601    0.147450
     32          6           0       -3.840661    0.944318   -1.962220
     33          6           0       -3.049491    2.167979   -2.495860
     34          8           0       -1.695621    1.698290   -2.427120
     35          6           0       -2.393750   -0.639441    4.341110
     36          1           0       -2.554209   -1.723561    4.275810
     37          1           0       -1.407640   -0.471200    4.787770
     38          1           0       -3.159840   -0.224401    5.012040
     39          6           0       -3.790460   -0.472542    2.286990
     40          1           0       -3.862000   -0.074082    1.264900
     41          1           0       -3.794349   -1.569962    2.223030
     42          1           0       -4.677270   -0.166402    2.858380
     43          6           0       -1.264991    1.998860    3.936320
     44          1           0       -0.323281    1.438010    3.865000
     45          1           0       -1.039622    3.057160    3.750260
     46          1           0       -1.654861    1.914360    4.959530
     47          6           0       -3.528312    2.350478    2.949720
     48          1           0       -4.065381    2.206538    3.898470
     49          1           0       -3.265022    3.413548    2.864720
     50          1           0       -4.204231    2.105648    2.122050
     51          6           0       -4.070650   -0.128732   -3.018770
     52          1           0       -3.137670   -0.369851   -3.546010
     53          1           0       -4.431199   -1.041772   -2.525710
     54          1           0       -4.822350    0.176097   -3.759300
     55          6           0       -5.142061    1.266437   -1.257440
     56          1           0       -5.848681    1.761897   -1.938800
     57          1           0       -5.607780    0.336827   -0.901530
     58          1           0       -4.977561    1.916327   -0.389870
     59          6           0       -3.370482    2.564478   -3.921380
     60          1           0       -4.430792    2.838208   -4.022270
     61          1           0       -2.766872    3.435109   -4.207390
     62          1           0       -3.148651    1.754899   -4.625730
     63          6           0       -3.145182    3.377939   -1.572340
     64          1           0       -2.374183    4.100269   -1.870130
     65          1           0       -4.129713    3.862538   -1.631930
     66          1           0       -2.942142    3.096009   -0.528290
     67          6           0       -0.378413    4.727040    1.142330
     68          1           0       -0.633263    3.911050    1.827700
     69          1           0       -0.058284    5.606861    1.717040
     70          1           0       -1.290473    4.986580    0.588390
     71          6           0        0.999206    5.419141   -0.804830
     72          1           0        0.066276    5.802751   -1.237880
     73          1           0        1.493126    6.247812   -0.276760
     74          1           0        1.641657    5.095652   -1.631050
     75          6           0        3.164558    3.649573   -0.065440
     76          1           0        3.594117    4.655693   -0.161400
     77          1           0        3.931158    2.993213    0.370700
     78          1           0        2.926888    3.277233   -1.072090
     79          6           0        2.269247    4.175872    2.196990
     80          1           0        2.495877    5.250712    2.148290
     81          1           0        1.446217    4.021852    2.903790
     82          1           0        3.154468    3.660613    2.591990
     83          1           0        0.795069    0.874911   -1.693930
     84          6           0        3.061181   -1.775387   -2.343940
     85          8           0        2.451862   -2.791978   -2.024600
     86          6           0        4.580941   -1.763486   -2.430940
     87          1           0        4.883251   -1.476326   -3.450290
     88          1           0        4.980991   -0.971586   -1.777040
     89          6           0        0.977530   -0.532189   -2.545170
     90          1           0        0.574560   -0.003149   -3.417360
     91          1           0        0.590351   -1.553299   -2.544520
     92          7           0        2.419670   -0.604928   -2.647700
     93          6           0        3.123920    0.640673   -2.864140
     94          1           0        3.438059    1.114073   -1.916940
     95          1           0        4.011800    0.501853   -3.489420
     96          1           0        2.457929    1.338992   -3.384380
     97          6           0        5.182372   -3.106936   -2.068560
     98          1           0        4.895132   -3.404216   -1.052710
     99          1           0        4.823703   -3.892286   -2.742730
    100          6           0        5.423520   -0.575706    1.178200
    101          9           0        5.537300    0.475274    0.353360
    102          9           0        5.646330   -0.132666    2.418320
    103          9           0        6.405721   -1.432645    0.879220
    104          6           0       -3.836517   -3.926902    0.105230
    105          9           0       -3.984637   -5.055162   -0.597840
    106          9           0       -4.394797   -4.142742    1.304770
    107          9           0       -4.538398   -2.968362   -0.502280
    108          1           0        6.276912   -3.068845   -2.121330
 ---------------------------------------------------------------------
 Rotational constants (GHZ):           0.0614448           0.0458190           0.0373870
 General basis read from cards:  (5D, 7F)
 ======================================================================================================
                                       Pseudopotential Parameters
 ======================================================================================================
  Center     Atomic      Valence      Angular      Power
  Number     Number     Electrons     Momentum     of R      Exponent        Coefficient   SO-Coeffient
 ======================================================================================================
    1          6
                                   No pseudopotential on this center.
    2          6
                                   No pseudopotential on this center.
    3          6
                                   No pseudopotential on this center.
    4          6
                                   No pseudopotential on this center.
    5          6
                                   No pseudopotential on this center.
    6          6
                                   No pseudopotential on this center.
    7          6
                                   No pseudopotential on this center.
    8          6
                                   No pseudopotential on this center.
    9          6
                                   No pseudopotential on this center.
   10          6
                                   No pseudopotential on this center.
   11          1
                                   No pseudopotential on this center.
   12          1
                                   No pseudopotential on this center.
   13          1
                                   No pseudopotential on this center.
   14          1
                                   No pseudopotential on this center.
   15          1
                                   No pseudopotential on this center.
   16          1
                                   No pseudopotential on this center.
   17          7
                                   No pseudopotential on this center.
   18          7
                                   No pseudopotential on this center.
   19         77           17
                                      G and up 
                                                     1      823.5880147       -0.15780140    0.00000000
                                                     2      364.6613336    -1517.52704460    0.00000000
                                                     2       55.7082801     -316.53065290    0.00000000
                                                     2       12.0464544      -91.88809410    0.00000000
                                                     2        3.5120610       -9.22417730    0.00000000
                                      S - G
                                                     0      188.0490770        3.15780140    0.00000000
                                                     1      340.4194712       26.83225770    0.00000000
                                                     2      128.2373673      800.42500070    0.00000000
                                                     2       33.8644961      369.40506830    0.00000000
                                                     2        4.7560005      242.41718990    0.00000000
                                                     2        3.9649974     -118.21732820    0.00000000
                                      P - G
                                                     0      289.7291139        2.15780140    0.00000000
                                                     1       87.4633789       61.96786100    0.00000000
                                                     2       30.4363766      269.05819860    0.00000000
                                                     2        4.0553412      231.16547930    0.00000000
                                                     2        3.5525341     -133.69526670    0.00000000
                                      D - G
                                                     0      136.4017106        3.15780140    0.00000000
                                                     1       95.0776925       45.93498030    0.00000000
                                                     2       49.2258410      359.03446680    0.00000000
                                                     2       15.0874145      176.47401190    0.00000000
                                                     2        4.0405764       54.51552860    0.00000000
                                      F - G
                                                     0      127.3507908        3.95461970    0.00000000
                                                     1       66.2364374       52.97736550    0.00000000
                                                     2       34.4299229      274.86433830    0.00000000
                                                     2       10.1995721      137.20473380    0.00000000
                                                     2        2.5409702       14.86333050    0.00000000
   20          8
                                   No pseudopotential on this center.
   21          8
                                   No pseudopotential on this center.
   22          8
                                   No pseudopotential on this center.
   23          5
                                   No pseudopotential on this center.
   24          5
                                   No pseudopotential on this center.
   25          5
                                   No pseudopotential on this center.
   26          8
                                   No pseudopotential on this center.
   27          8
                                   No pseudopotential on this center.
   28          6
                                   No pseudopotential on this center.
   29          6
                                   No pseudopotential on this center.
   30          6
                                   No pseudopotential on this center.
   31          6
                                   No pseudopotential on this center.
   32          6
                                   No pseudopotential on this center.
   33          6
                                   No pseudopotential on this center.
   34          8
                                   No pseudopotential on this center.
   35          6
                                   No pseudopotential on this center.
   36          1
                                   No pseudopotential on this center.
   37          1
                                   No pseudopotential on this center.
   38          1
                                   No pseudopotential on this center.
   39          6
                                   No pseudopotential on this center.
   40          1
                                   No pseudopotential on this center.
   41          1
                                   No pseudopotential on this center.
   42          1
                                   No pseudopotential on this center.
   43          6
                                   No pseudopotential on this center.
   44          1
                                   No pseudopotential on this center.
   45          1
                                   No pseudopotential on this center.
   46          1
                                   No pseudopotential on this center.
   47          6
                                   No pseudopotential on this center.
   48          1
                                   No pseudopotential on this center.
   49          1
                                   No pseudopotential on this center.
   50          1
                                   No pseudopotential on this center.
   51          6
                                   No pseudopotential on this center.
   52          1
                                   No pseudopotential on this center.
   53          1
                                   No pseudopotential on this center.
   54          1
                                   No pseudopotential on this center.
   55          6
                                   No pseudopotential on this center.
   56          1
                                   No pseudopotential on this center.
   57          1
                                   No pseudopotential on this center.
   58          1
                                   No pseudopotential on this center.
   59          6
                                   No pseudopotential on this center.
   60          1
                                   No pseudopotential on this center.
   61          1
                                   No pseudopotential on this center.
   62          1
                                   No pseudopotential on this center.
   63          6
                                   No pseudopotential on this center.
   64          1
                                   No pseudopotential on this center.
   65          1
                                   No pseudopotential on this center.
   66          1
                                   No pseudopotential on this center.
   67          6
                                   No pseudopotential on this center.
   68          1
                                   No pseudopotential on this center.
   69          1
                                   No pseudopotential on this center.
   70          1
                                   No pseudopotential on this center.
   71          6
                                   No pseudopotential on this center.
   72          1
                                   No pseudopotential on this center.
   73          1
                                   No pseudopotential on this center.
   74          1
                                   No pseudopotential on this center.
   75          6
                                   No pseudopotential on this center.
   76          1
                                   No pseudopotential on this center.
   77          1
                                   No pseudopotential on this center.
   78          1
                                   No pseudopotential on this center.
   79          6
                                   No pseudopotential on this center.
   80          1
                                   No pseudopotential on this center.
   81          1
                                   No pseudopotential on this center.
   82          1
                                   No pseudopotential on this center.
   83          1
                                   No pseudopotential on this center.
   84          6
                                   No pseudopotential on this center.
   85          8
                                   No pseudopotential on this center.
   86          6
                                   No pseudopotential on this center.
   87          1
                                   No pseudopotential on this center.
   88          1
                                   No pseudopotential on this center.
   89          6
                                   No pseudopotential on this center.
   90          1
                                   No pseudopotential on this center.
   91          1
                                   No pseudopotential on this center.
   92          7
                                   No pseudopotential on this center.
   93          6
                                   No pseudopotential on this center.
   94          1
                                   No pseudopotential on this center.
   95          1
                                   No pseudopotential on this center.
   96          1
                                   No pseudopotential on this center.
   97          6
                                   No pseudopotential on this center.
   98          1
                                   No pseudopotential on this center.
   99          1
                                   No pseudopotential on this center.
  100          6
                                   No pseudopotential on this center.
  101          9
                                   No pseudopotential on this center.
  102          9
                                   No pseudopotential on this center.
  103          9
                                   No pseudopotential on this center.
  104          6
                                   No pseudopotential on this center.
  105          9
                                   No pseudopotential on this center.
  106          9
                                   No pseudopotential on this center.
  107          9
                                   No pseudopotential on this center.
  108          1
                                   No pseudopotential on this center.
 ======================================================================================================
 There are   940 symmetry adapted cartesian basis functions of A   symmetry.
 There are   884 symmetry adapted basis functions of A   symmetry.
   884 basis functions,  1767 primitive gaussians,   940 cartesian basis functions
   213 alpha electrons      213 beta electrons
       nuclear repulsion energy      9733.2021231101 Hartrees.
 NAtoms=  108 NActive=  108 NUniq=  108 SFac= 1.00D+00 NAtFMM=   60 NAOKFM=T Big=T
 Integral buffers will be    131072 words long.
 Raffenetti 2 integral format.
 Two-electron integral symmetry is turned on.
 One-electron integrals computed using PRISM.
   1 Symmetry operations used in ECPInt.
 ECPInt:  NShTT=   54615 NPrTT=  339395 LenC2=   41048 LenP2D=  127259.
 LDataN:  DoStor=T MaxTD1= 6 Len=  172
 NBasis=   884 RedAO= T EigKep=  4.64D-04  NBF=   884
 NBsUse=   884 1.00D-06 EigRej= -1.00D+00 NBFU=   884
 Defaulting to unpruned grid for atomic number  77.
 ExpMin= 2.90D-02 ExpMax= 7.00D+03 ExpMxC= 1.05D+03 IAcc=3 IRadAn=         5 AccDes= 0.00D+00
 Harris functional with IExCor= 1009 and IRadAn=       5 diagonalized for initial guess.
 HarFok:  IExCor= 1009 AccDes= 0.00D+00 IRadAn=         5 IDoV= 1 UseB2=F ITyADJ=14
 ICtDFT=  3500011 ScaDFX=  1.000000  1.000000  1.000000  1.000000
 Defaulting to unpruned grid for atomic number  77.
 FoFCou: FMM=F IPFlag=           0 FMFlag=      100000 FMFlg1=        2001
         NFxFlg=           0 DoJE=T BraDBF=F KetDBF=T FulRan=T
         wScrn=  0.000000 ICntrl=       500 IOpCl=  0 I1Cent=   200000004 NGrid=           0
         NMat0=    1 NMatS0=      1 NMatT0=    0 NMatD0=    1 NMtDS0=    0 NMtDT0=    0
 Petite list used in FoFCou.
 Requested convergence on RMS density matrix=1.00D-08 within 128 cycles.
 Requested convergence on MAX density matrix=1.00D-06.
 Requested convergence on             energy=1.00D-06.
 No special actions if energy rises.
 Defaulting to unpruned grid for atomic number  77.
 Defaulting to unpruned grid for atomic number  77.
 Defaulting to unpruned grid for atomic number  77.
 Defaulting to unpruned grid for atomic number  77.
 Defaulting to unpruned grid for atomic number  77.
 Defaulting to unpruned grid for atomic number  77.
 Defaulting to unpruned grid for atomic number  77.
 Defaulting to unpruned grid for atomic number  77.
 Defaulting to unpruned grid for atomic number  77.
 Defaulting to unpruned grid for atomic number  77.
 Defaulting to unpruned grid for atomic number  77.
 Defaulting to unpruned grid for atomic number  77.
 Defaulting to unpruned grid for atomic number  77.
 Defaulting to unpruned grid for atomic number  77.
 Defaulting to unpruned grid for atomic number  77.
 Defaulting to unpruned grid for atomic number  77.
 SCF Done:  E(RM06) =  -2833.54265933     A.U. after   15 cycles
            NFock= 15  Conv=0.79D-08     -V/T= 2.0320
 DoSCS=F DFT=T ScalE2(SS,OS)=  1.000000  1.000000
 Range of M.O.s used for correlation:     1   884
 NBasis=   884 NAE=   213 NBE=   213 NFC=     0 NFV=     0
 NROrb=    884 NOA=   213 NOB=   213 NVA=   671 NVB=   671

 **** Warning!!: The largest alpha MO coefficient is  0.12138364D+02

   1 Symmetry operations used in ECPInt.
 ECPInt:  NShTT=   54615 NPrTT=  339395 LenC2=   41048 LenP2D=  127259.
 LDataN:  DoStor=T MaxTD1= 7 Len=  274
 Number of processors reduced to   7 by ecpmxn.
 Symmetrizing basis deriv contribution to polar:
 IMax=3 JMax=2 DiffMx= 0.00D+00
 G2DrvN: will do   109 centers at a time, making    1 passes.
 Calling FoFCou, ICntrl=  3107 FMM=T I1Cent=   0 AccDes= 0.00D+00.
 Defaulting to unpruned grid for atomic number  77.
 Defaulting to unpruned grid for atomic number  77.
 Defaulting to unpruned grid for atomic number  77.
 Defaulting to unpruned grid for atomic number  77.
 Defaulting to unpruned grid for atomic number  77.
 Defaulting to unpruned grid for atomic number  77.
 Defaulting to unpruned grid for atomic number  77.
 Defaulting to unpruned grid for atomic number  77.
 Defaulting to unpruned grid for atomic number  77.
 Defaulting to unpruned grid for atomic number  77.
 Defaulting to unpruned grid for atomic number  77.
 Defaulting to unpruned grid for atomic number  77.
 Defaulting to unpruned grid for atomic number  77.
 Defaulting to unpruned grid for atomic number  77.
 Defaulting to unpruned grid for atomic number  77.
 Defaulting to unpruned grid for atomic number  77.
 End of G2Drv F.D. properties file   721 does not exist.
 End of G2Drv F.D. properties file   722 does not exist.
 End of G2Drv F.D. properties file   788 does not exist.
          IDoAtm=11111111111111111111111111111111111111111111111111
          IDoAtm=11111111111111111111111111111111111111111111111111
          IDoAtm=11111111
          Differentiating once with respect to electric field.
                with respect to dipole field.
          Differentiating once with respect to nuclear coordinates.
 Defaulting to unpruned grid for atomic number  77.
 CalDSu exits because no D1Ps are significant.
 Defaulting to unpruned grid for atomic number  77.
 Defaulting to unpruned grid for atomic number  77.
 Defaulting to unpruned grid for atomic number  77.
 Defaulting to unpruned grid for atomic number  77.
 Defaulting to unpruned grid for atomic number  77.
 Defaulting to unpruned grid for atomic number  77.
 Defaulting to unpruned grid for atomic number  77.
 Defaulting to unpruned grid for atomic number  77.
 Defaulting to unpruned grid for atomic number  77.
 Defaulting to unpruned grid for atomic number  77.
 Defaulting to unpruned grid for atomic number  77.
 Defaulting to unpruned grid for atomic number  77.
 Defaulting to unpruned grid for atomic number  77.
 Defaulting to unpruned grid for atomic number  77.
 Defaulting to unpruned grid for atomic number  77.
 Defaulting to unpruned grid for atomic number  77.
          There are   327 degrees of freedom in the 1st order CPHF.  IDoFFX=6 NUNeed=     3.
    324 vectors produced by pass  0 Test12= 1.43D-13 1.00D-09 XBig12= 5.04D+02 1.05D+01.
 AX will form    72 AO Fock derivatives at one time.
    324 vectors produced by pass  1 Test12= 1.43D-13 1.00D-09 XBig12= 8.12D+01 1.15D+00.
    324 vectors produced by pass  2 Test12= 1.43D-13 1.00D-09 XBig12= 9.19D-01 8.37D-02.
    324 vectors produced by pass  3 Test12= 1.43D-13 1.00D-09 XBig12= 6.49D-03 4.98D-03.
    324 vectors produced by pass  4 Test12= 1.43D-13 1.00D-09 XBig12= 2.87D-05 2.75D-04.
    293 vectors produced by pass  5 Test12= 1.43D-13 1.00D-09 XBig12= 5.71D-08 1.05D-05.
     84 vectors produced by pass  6 Test12= 1.43D-13 1.00D-09 XBig12= 8.28D-11 4.15D-07.
      3 vectors produced by pass  7 Test12= 1.43D-13 1.00D-09 XBig12= 1.11D-13 1.83D-08.
 InvSVY:  IOpt=1 It=  1 EMax= 1.42D-14
 Solved reduced A of dimension  2000 with   327 vectors.
 Isotropic polarizability for W=    0.000000      488.80 Bohr**3.
 End of Minotr F.D. properties file   721 does not exist.
 End of Minotr F.D. properties file   722 does not exist.
 End of Minotr F.D. properties file   788 does not exist.
 Hyperfine terms turned off by default for NAtoms > 100.

 **********************************************************************

            Population analysis using the SCF Density.

 **********************************************************************

 Orbital symmetries:
       Occupied  (A) (A) (A) (A) (A) (A) (A) (A) (A) (A) (A) (A)
                 (A) (A) (A) (A) (A) (A) (A) (A) (A) (A) (A) (A)
                 (A) (A) (A) (A) (A) (A) (A) (A) (A) (A) (A) (A)
                 (A) (A) (A) (A) (A) (A) (A) (A) (A) (A) (A) (A)
                 (A) (A) (A) (A) (A) (A) (A) (A) (A) (A) (A) (A)
                 (A) (A) (A) (A) (A) (A) (A) (A) (A) (A) (A) (A)
                 (A) (A) (A) (A) (A) (A) (A) (A) (A) (A) (A) (A)
                 (A) (A) (A) (A) (A) (A) (A) (A) (A) (A) (A) (A)
                 (A) (A) (A) (A) (A) (A) (A) (A) (A) (A) (A) (A)
                 (A) (A) (A) (A) (A) (A) (A) (A) (A) (A) (A) (A)
                 (A) (A) (A) (A) (A) (A) (A) (A) (A) (A) (A) (A)
                 (A) (A) (A) (A) (A) (A) (A) (A) (A) (A) (A) (A)
                 (A) (A) (A) (A) (A) (A) (A) (A) (A) (A) (A) (A)
                 (A) (A) (A) (A) (A) (A) (A) (A) (A) (A) (A) (A)
                 (A) (A) (A) (A) (A) (A) (A) (A) (A) (A) (A) (A)
                 (A) (A) (A) (A) (A) (A) (A) (A) (A) (A) (A) (A)
                 (A) (A) (A) (A) (A) (A) (A) (A) (A) (A) (A) (A)
                 (A) (A) (A) (A) (A) (A) (A) (A) (A)
       Virtual   (A) (A) (A) (A) (A) (A) (A) (A) (A) (A) (A) (A)
                 (A) (A) (A) (A) (A) (A) (A) (A) (A) (A) (A) (A)
                 (A) (A) (A) (A) (A) (A) (A) (A) (A) (A) (A) (A)
                 (A) (A) (A) (A) (A) (A) (A) (A) (A) (A) (A) (A)
                 (A) (A) (A) (A) (A) (A) (A) (A) (A) (A) (A) (A)
                 (A) (A) (A) (A) (A) (A) (A) (A) (A) (A) (A) (A)
                 (A) (A) (A) (A) (A) (A) (A) (A) (A) (A) (A) (A)
                 (A) (A) (A) (A) (A) (A) (A) (A) (A) (A) (A) (A)
                 (A) (A) (A) (A) (A) (A) (A) (A) (A) (A) (A) (A)
                 (A) (A) (A) (A) (A) (A) (A) (A) (A) (A) (A) (A)
                 (A) (A) (A) (A) (A) (A) (A) (A) (A) (A) (A) (A)
                 (A) (A) (A) (A) (A) (A) (A) (A) (A) (A) (A) (A)
                 (A) (A) (A) (A) (A) (A) (A) (A) (A) (A) (A) (A)
                 (A) (A) (A) (A) (A) (A) (A) (A) (A) (A) (A) (A)
                 (A) (A) (A) (A) (A) (A) (A) (A) (A) (A) (A) (A)
                 (A) (A) (A) (A) (A) (A) (A) (A) (A) (A) (A) (A)
                 (A) (A) (A) (A) (A) (A) (A) (A) (A) (A) (A) (A)
                 (A) (A) (A) (A) (A) (A) (A) (A) (A) (A) (A) (A)
                 (A) (A) (A) (A) (A) (A) (A) (A) (A) (A) (A) (A)
                 (A) (A) (A) (A) (A) (A) (A) (A) (A) (A) (A) (A)
                 (A) (A) (A) (A) (A) (A) (A) (A) (A) (A) (A) (A)
                 (A) (A) (A) (A) (A) (A) (A) (A) (A) (A) (A) (A)
                 (A) (A) (A) (A) (A) (A) (A) (A) (A) (A) (A) (A)
                 (A) (A) (A) (A) (A) (A) (A) (A) (A) (A) (A) (A)
                 (A) (A) (A) (A) (A) (A) (A) (A) (A) (A) (A) (A)
                 (A) (A) (A) (A) (A) (A) (A) (A) (A) (A) (A) (A)
                 (A) (A) (A) (A) (A) (A) (A) (A) (A) (A) (A) (A)
                 (A) (A) (A) (A) (A) (A) (A) (A) (A) (A) (A) (A)
                 (A) (A) (A) (A) (A) (A) (A) (A) (A) (A) (A) (A)
                 (A) (A) (A) (A) (A) (A) (A) (A) (A) (A) (A) (A)
                 (A) (A) (A) (A) (A) (A) (A) (A) (A) (A) (A) (A)
                 (A) (A) (A) (A) (A) (A) (A) (A) (A) (A) (A) (A)
                 (A) (A) (A) (A) (A) (A) (A) (A) (A) (A) (A) (A)
                 (A) (A) (A) (A) (A) (A) (A) (A) (A) (A) (A) (A)
                 (A) (A) (A) (A) (A) (A) (A) (A) (A) (A) (A) (A)
                 (A) (A) (A) (A) (A) (A) (A) (A) (A) (A) (A) (A)
                 (A) (A) (A) (A) (A) (A) (A) (A) (A) (A) (A) (A)
                 (A) (A) (A) (A) (A) (A) (A) (A) (A) (A) (A) (A)
                 (A) (A) (A) (A) (A) (A) (A) (A) (A) (A) (A) (A)
                 (A) (A) (A) (A) (A) (A) (A) (A) (A) (A) (A) (A)
                 (A) (A) (A) (A) (A) (A) (A) (A) (A) (A) (A) (A)
                 (A) (A) (A) (A) (A) (A) (A) (A) (A) (A) (A) (A)
                 (A) (A) (A) (A) (A) (A) (A) (A) (A) (A) (A) (A)
                 (A) (A) (A) (A) (A) (A) (A) (A) (A) (A) (A) (A)
                 (A) (A) (A) (A) (A) (A) (A) (A) (A) (A) (A) (A)
                 (A) (A) (A) (A) (A) (A) (A) (A) (A) (A) (A) (A)
                 (A) (A) (A) (A) (A) (A) (A) (A) (A) (A) (A) (A)
                 (A) (A) (A) (A) (A) (A) (A) (A) (A) (A) (A) (A)
                 (A) (A) (A) (A) (A) (A) (A) (A) (A) (A) (A) (A)
                 (A) (A) (A) (A) (A) (A) (A) (A) (A) (A) (A) (A)
                 (A) (A) (A) (A) (A) (A) (A) (A) (A) (A) (A) (A)
                 (A) (A) (A) (A) (A) (A) (A) (A) (A) (A) (A) (A)
                 (A) (A) (A) (A) (A) (A) (A) (A) (A) (A) (A) (A)
                 (A) (A) (A) (A) (A) (A) (A) (A) (A) (A) (A) (A)
                 (A) (A) (A) (A) (A) (A) (A) (A) (A) (A) (A) (A)
                 (A) (A) (A) (A) (A) (A) (A) (A) (A) (A) (A)
 The electronic state is 1-A.
 Alpha  occ. eigenvalues --  -24.83831 -24.83649 -24.83321 -24.83157 -24.82824
 Alpha  occ. eigenvalues --  -24.82728 -19.20677 -19.20528 -19.20490 -19.20466
 Alpha  occ. eigenvalues --  -19.20030 -19.19542 -19.18270 -14.45732 -14.45419
 Alpha  occ. eigenvalues --  -14.42262 -10.52026 -10.51466 -10.33830 -10.33012
 Alpha  occ. eigenvalues --  -10.32958 -10.31587 -10.31065 -10.30244 -10.30060
 Alpha  occ. eigenvalues --  -10.29895 -10.29671 -10.29507 -10.29457 -10.29423
 Alpha  occ. eigenvalues --  -10.29266 -10.29219 -10.29212 -10.29132 -10.28875
 Alpha  occ. eigenvalues --  -10.27715 -10.26287 -10.25111 -10.23210 -10.23130
 Alpha  occ. eigenvalues --  -10.23008 -10.23000 -10.22926 -10.22809 -10.22722
 Alpha  occ. eigenvalues --  -10.22666 -10.22556 -10.22434 -10.22151 -10.21789
 Alpha  occ. eigenvalues --  -10.21417  -6.80837  -6.79909  -6.79282  -3.63817
 Alpha  occ. eigenvalues --   -2.06337  -2.05837  -2.05028  -1.36376  -1.35815
 Alpha  occ. eigenvalues --   -1.27816  -1.27459  -1.27322  -1.26820  -1.06491
 Alpha  occ. eigenvalues --   -1.06295  -1.06035  -1.04083  -1.01035  -0.99485
 Alpha  occ. eigenvalues --   -0.99452  -0.99010  -0.98573  -0.93849  -0.86931
 Alpha  occ. eigenvalues --   -0.86086  -0.84343  -0.80688  -0.80620  -0.80501
 Alpha  occ. eigenvalues --   -0.80122  -0.78447  -0.75936  -0.75023  -0.74984
 Alpha  occ. eigenvalues --   -0.74602  -0.72796  -0.71774  -0.70627  -0.70512
 Alpha  occ. eigenvalues --   -0.70127  -0.69544  -0.69288  -0.69002  -0.67769
 Alpha  occ. eigenvalues --   -0.67701  -0.67381  -0.66648  -0.65522  -0.62677
 Alpha  occ. eigenvalues --   -0.62436  -0.62346  -0.62066  -0.61819  -0.61699
 Alpha  occ. eigenvalues --   -0.61496  -0.61222  -0.60957  -0.60466  -0.57032
 Alpha  occ. eigenvalues --   -0.54989  -0.54844  -0.54606  -0.54333  -0.54030
 Alpha  occ. eigenvalues --   -0.53400  -0.53334  -0.52968  -0.51926  -0.50593
 Alpha  occ. eigenvalues --   -0.50158  -0.49878  -0.49490  -0.49405  -0.49201
 Alpha  occ. eigenvalues --   -0.48952  -0.48469  -0.48109  -0.47831  -0.47420
 Alpha  occ. eigenvalues --   -0.47093  -0.46936  -0.46554  -0.46401  -0.46324
 Alpha  occ. eigenvalues --   -0.46221  -0.46035  -0.45959  -0.45644  -0.45353
 Alpha  occ. eigenvalues --   -0.45101  -0.44925  -0.44608  -0.44570  -0.44371
 Alpha  occ. eigenvalues --   -0.44078  -0.43749  -0.43694  -0.43581  -0.43444
 Alpha  occ. eigenvalues --   -0.43430  -0.43131  -0.43081  -0.42708  -0.41215
 Alpha  occ. eigenvalues --   -0.40594  -0.40512  -0.40309  -0.40190  -0.40166
 Alpha  occ. eigenvalues --   -0.40155  -0.39983  -0.39833  -0.39802  -0.39605
 Alpha  occ. eigenvalues --   -0.39546  -0.39316  -0.39064  -0.38975  -0.38690
 Alpha  occ. eigenvalues --   -0.38557  -0.38035  -0.37720  -0.37544  -0.37363
 Alpha  occ. eigenvalues --   -0.37240  -0.36850  -0.36685  -0.36374  -0.36281
 Alpha  occ. eigenvalues --   -0.36224  -0.36135  -0.36091  -0.35948  -0.35614
 Alpha  occ. eigenvalues --   -0.35054  -0.34832  -0.34652  -0.34562  -0.34047
 Alpha  occ. eigenvalues --   -0.33609  -0.33088  -0.32712  -0.32536  -0.32038
 Alpha  occ. eigenvalues --   -0.31904  -0.31500  -0.31197  -0.30641  -0.30070
 Alpha  occ. eigenvalues --   -0.29917  -0.28616  -0.28072  -0.27576  -0.26837
 Alpha  occ. eigenvalues --   -0.26546  -0.26351  -0.26129  -0.25476  -0.25403
 Alpha  occ. eigenvalues --   -0.23286  -0.22986  -0.19294
 Alpha virt. eigenvalues --   -0.08515  -0.04655  -0.04113  -0.00605   0.02220
 Alpha virt. eigenvalues --    0.03014   0.04407   0.05759   0.06641   0.07014
 Alpha virt. eigenvalues --    0.07427   0.08207   0.09007   0.09245   0.09604
 Alpha virt. eigenvalues --    0.09716   0.10273   0.10635   0.11253   0.11603
 Alpha virt. eigenvalues --    0.11729   0.12173   0.12502   0.12707   0.12852
 Alpha virt. eigenvalues --    0.13151   0.13403   0.13876   0.13994   0.14117
 Alpha virt. eigenvalues --    0.14335   0.14547   0.14917   0.15167   0.15192
 Alpha virt. eigenvalues --    0.15389   0.15549   0.15813   0.16109   0.16225
 Alpha virt. eigenvalues --    0.16508   0.16688   0.16880   0.17213   0.17463
 Alpha virt. eigenvalues --    0.17569   0.17722   0.17993   0.18128   0.18494
 Alpha virt. eigenvalues --    0.18637   0.18875   0.18979   0.19170   0.19347
 Alpha virt. eigenvalues --    0.19709   0.19942   0.20070   0.20235   0.20377
 Alpha virt. eigenvalues --    0.20532   0.20558   0.20749   0.20894   0.21392
 Alpha virt. eigenvalues --    0.21571   0.21616   0.21931   0.22267   0.22469
 Alpha virt. eigenvalues --    0.22658   0.22852   0.23050   0.23320   0.23533
 Alpha virt. eigenvalues --    0.23596   0.24084   0.24293   0.24367   0.24604
 Alpha virt. eigenvalues --    0.24875   0.25040   0.25349   0.25428   0.25702
 Alpha virt. eigenvalues --    0.25888   0.26138   0.26338   0.26408   0.26679
 Alpha virt. eigenvalues --    0.27178   0.27324   0.27546   0.27733   0.28404
 Alpha virt. eigenvalues --    0.28926   0.29228   0.29351   0.30084   0.30861
 Alpha virt. eigenvalues --    0.31208   0.31975   0.32144   0.32407   0.33070
 Alpha virt. eigenvalues --    0.33594   0.34143   0.34928   0.35458   0.35532
 Alpha virt. eigenvalues --    0.35960   0.36602   0.37042   0.37306   0.38042
 Alpha virt. eigenvalues --    0.39087   0.39487   0.40053   0.41071   0.41711
 Alpha virt. eigenvalues --    0.43942   0.44834   0.45331   0.45861   0.46563
 Alpha virt. eigenvalues --    0.46890   0.47441   0.48191   0.48809   0.49358
 Alpha virt. eigenvalues --    0.49832   0.50048   0.50686   0.50994   0.51059
 Alpha virt. eigenvalues --    0.51414   0.51722   0.52065   0.52353   0.52703
 Alpha virt. eigenvalues --    0.53094   0.53378   0.53791   0.54499   0.54965
 Alpha virt. eigenvalues --    0.55153   0.55638   0.55966   0.56353   0.56635
 Alpha virt. eigenvalues --    0.56739   0.56956   0.57394   0.57688   0.57989
 Alpha virt. eigenvalues --    0.58279   0.58527   0.58777   0.59026   0.59365
 Alpha virt. eigenvalues --    0.59452   0.59675   0.59982   0.60241   0.60634
 Alpha virt. eigenvalues --    0.60894   0.61260   0.61562   0.61802   0.62063
 Alpha virt. eigenvalues --    0.62700   0.63116   0.63657   0.63767   0.64276
 Alpha virt. eigenvalues --    0.64546   0.64825   0.65516   0.65754   0.66152
 Alpha virt. eigenvalues --    0.66241   0.66503   0.66953   0.67072   0.67152
 Alpha virt. eigenvalues --    0.67679   0.67869   0.68100   0.68567   0.69112
 Alpha virt. eigenvalues --    0.69297   0.70239   0.70521   0.70778   0.70918
 Alpha virt. eigenvalues --    0.71667   0.71730   0.72087   0.72161   0.72476
 Alpha virt. eigenvalues --    0.72593   0.73059   0.73590   0.73698   0.74081
 Alpha virt. eigenvalues --    0.74438   0.74844   0.74992   0.75202   0.75731
 Alpha virt. eigenvalues --    0.75887   0.77038   0.77219   0.77483   0.77870
 Alpha virt. eigenvalues --    0.78149   0.78805   0.79257   0.79453   0.79791
 Alpha virt. eigenvalues --    0.80312   0.81085   0.81505   0.82060   0.82285
 Alpha virt. eigenvalues --    0.82565   0.83118   0.83305   0.83651   0.83910
 Alpha virt. eigenvalues --    0.84338   0.84532   0.84815   0.84928   0.85087
 Alpha virt. eigenvalues --    0.85464   0.85622   0.85950   0.86226   0.86746
 Alpha virt. eigenvalues --    0.87048   0.87400   0.87504   0.87868   0.87883
 Alpha virt. eigenvalues --    0.88201   0.88409   0.88721   0.88911   0.88984
 Alpha virt. eigenvalues --    0.89422   0.89788   0.89874   0.90064   0.90489
 Alpha virt. eigenvalues --    0.90903   0.90986   0.91082   0.91258   0.91458
 Alpha virt. eigenvalues --    0.91814   0.92111   0.92432   0.92664   0.93164
 Alpha virt. eigenvalues --    0.93491   0.93743   0.93995   0.94144   0.94647
 Alpha virt. eigenvalues --    0.94766   0.95280   0.95504   0.95807   0.96026
 Alpha virt. eigenvalues --    0.96357   0.96575   0.97200   0.97701   0.97986
 Alpha virt. eigenvalues --    0.98295   0.98945   0.99310   0.99663   1.00325
 Alpha virt. eigenvalues --    1.00766   1.01391   1.02000   1.02622   1.02861
 Alpha virt. eigenvalues --    1.03148   1.03653   1.03921   1.04236   1.05363
 Alpha virt. eigenvalues --    1.05715   1.05906   1.06421   1.07120   1.07369
 Alpha virt. eigenvalues --    1.08274   1.08750   1.09070   1.09450   1.09762
 Alpha virt. eigenvalues --    1.10201   1.10891   1.11338   1.11990   1.12693
 Alpha virt. eigenvalues --    1.12941   1.13147   1.14131   1.14869   1.15124
 Alpha virt. eigenvalues --    1.15440   1.16052   1.16287   1.17653   1.17910
 Alpha virt. eigenvalues --    1.18005   1.18683   1.18833   1.19584   1.19951
 Alpha virt. eigenvalues --    1.20301   1.20476   1.20863   1.21122   1.21557
 Alpha virt. eigenvalues --    1.22081   1.22449   1.23615   1.23778   1.24280
 Alpha virt. eigenvalues --    1.24794   1.25421   1.25928   1.26426   1.26795
 Alpha virt. eigenvalues --    1.27165   1.27836   1.28476   1.29017   1.29425
 Alpha virt. eigenvalues --    1.30342   1.31243   1.32173   1.33116   1.33781
 Alpha virt. eigenvalues --    1.33999   1.34276   1.34721   1.34893   1.35075
 Alpha virt. eigenvalues --    1.35137   1.35682   1.36392   1.36904   1.37012
 Alpha virt. eigenvalues --    1.37742   1.38333   1.38872   1.39377   1.39603
 Alpha virt. eigenvalues --    1.39897   1.40317   1.40521   1.41312   1.41546
 Alpha virt. eigenvalues --    1.42064   1.42370   1.43144   1.43550   1.43829
 Alpha virt. eigenvalues --    1.44279   1.44791   1.44967   1.45220   1.45526
 Alpha virt. eigenvalues --    1.46424   1.47103   1.47461   1.48470   1.48813
 Alpha virt. eigenvalues --    1.49120   1.50049   1.50461   1.51153   1.51806
 Alpha virt. eigenvalues --    1.53013   1.53415   1.53955   1.54853   1.56124
 Alpha virt. eigenvalues --    1.56404   1.57145   1.57712   1.58690   1.59500
 Alpha virt. eigenvalues --    1.60618   1.61303   1.61679   1.63382   1.63581
 Alpha virt. eigenvalues --    1.63663   1.64789   1.64934   1.65361   1.65421
 Alpha virt. eigenvalues --    1.66115   1.67200   1.68176   1.68248   1.68502
 Alpha virt. eigenvalues --    1.69346   1.69680   1.70140   1.70797   1.70991
 Alpha virt. eigenvalues --    1.71716   1.72388   1.72482   1.73489   1.74303
 Alpha virt. eigenvalues --    1.74932   1.75513   1.75731   1.76103   1.77228
 Alpha virt. eigenvalues --    1.77596   1.77811   1.78063   1.78679   1.78881
 Alpha virt. eigenvalues --    1.79908   1.80807   1.81301   1.81682   1.82006
 Alpha virt. eigenvalues --    1.82266   1.82963   1.83374   1.83692   1.84295
 Alpha virt. eigenvalues --    1.84442   1.85001   1.85124   1.85686   1.86238
 Alpha virt. eigenvalues --    1.86494   1.86776   1.87203   1.87547   1.87699
 Alpha virt. eigenvalues --    1.87798   1.88183   1.88644   1.89493   1.89804
 Alpha virt. eigenvalues --    1.90437   1.90656   1.91116   1.91364   1.91536
 Alpha virt. eigenvalues --    1.91770   1.92112   1.92328   1.92587   1.92840
 Alpha virt. eigenvalues --    1.93257   1.93514   1.93878   1.94028   1.94542
 Alpha virt. eigenvalues --    1.94626   1.95387   1.96144   1.96783   1.97065
 Alpha virt. eigenvalues --    1.97721   1.97807   1.98991   1.99547   1.99945
 Alpha virt. eigenvalues --    2.00352   2.00488   2.01103   2.01363   2.01716
 Alpha virt. eigenvalues --    2.02137   2.02412   2.02595   2.02787   2.02957
 Alpha virt. eigenvalues --    2.03060   2.03646   2.03783   2.04587   2.05007
 Alpha virt. eigenvalues --    2.05378   2.05922   2.06457   2.06725   2.07004
 Alpha virt. eigenvalues --    2.07404   2.07867   2.08080   2.08525   2.08997
 Alpha virt. eigenvalues --    2.09018   2.09390   2.09579   2.09677   2.10053
 Alpha virt. eigenvalues --    2.10460   2.10696   2.11024   2.11320   2.12040
 Alpha virt. eigenvalues --    2.12572   2.13024   2.13530   2.13966   2.14085
 Alpha virt. eigenvalues --    2.14291   2.14523   2.15135   2.15167   2.15679
 Alpha virt. eigenvalues --    2.16250   2.16890   2.17298   2.17725   2.17871
 Alpha virt. eigenvalues --    2.18737   2.18876   2.19061   2.19393   2.19575
 Alpha virt. eigenvalues --    2.19945   2.20110   2.20340   2.21011   2.21538
 Alpha virt. eigenvalues --    2.21656   2.21897   2.22181   2.22874   2.23073
 Alpha virt. eigenvalues --    2.23552   2.23867   2.24253   2.24531   2.25309
 Alpha virt. eigenvalues --    2.25414   2.25857   2.25992   2.26612   2.26866
 Alpha virt. eigenvalues --    2.27093   2.27565   2.27670   2.28076   2.28616
 Alpha virt. eigenvalues --    2.29486   2.31420   2.31485   2.31658   2.32153
 Alpha virt. eigenvalues --    2.32324   2.33284   2.33581   2.33611   2.33984
 Alpha virt. eigenvalues --    2.34691   2.35667   2.37538   2.38227   2.38772
 Alpha virt. eigenvalues --    2.39402   2.39634   2.40424   2.41518   2.43379
 Alpha virt. eigenvalues --    2.43548   2.44108   2.44855   2.45071   2.45345
 Alpha virt. eigenvalues --    2.47406   2.48327   2.48738   2.49416   2.49509
 Alpha virt. eigenvalues --    2.50055   2.50408   2.50958   2.52343   2.53301
 Alpha virt. eigenvalues --    2.53572   2.54580   2.55595   2.59073   2.59761
 Alpha virt. eigenvalues --    2.60214   2.60503   2.61032   2.61783   2.62883
 Alpha virt. eigenvalues --    2.63919   2.64753   2.64981   2.65497   2.66315
 Alpha virt. eigenvalues --    2.66691   2.67907   2.69329   2.69946   2.71375
 Alpha virt. eigenvalues --    2.74500   2.76509   2.76952   2.77309   2.77629
 Alpha virt. eigenvalues --    2.77829   2.78814   2.79115   2.79444   2.80019
 Alpha virt. eigenvalues --    2.80682   2.80899   2.81197   2.81701   2.81964
 Alpha virt. eigenvalues --    2.82728   2.83432   2.85260   2.85386   2.87846
 Alpha virt. eigenvalues --    2.89274   2.90885   2.91869   2.92077   2.92642
 Alpha virt. eigenvalues --    2.94847   2.95324   2.95864   2.96743   2.97671
 Alpha virt. eigenvalues --    2.98654   3.02866   3.03514   3.05940   3.06725
 Alpha virt. eigenvalues --    3.07084   3.07354   3.08129   3.08248   3.10433
 Alpha virt. eigenvalues --    3.11813   3.12127   3.12331   3.12863   3.13562
 Alpha virt. eigenvalues --    3.14778   3.20119   3.25779   3.32558   3.45263
 Alpha virt. eigenvalues --   13.40092
          Condensed to atoms (all electrons):
 Mulliken charges:
               1
     1  C    0.318812
     2  C    0.042504
     3  C   -0.076622
     4  C   -0.164255
     5  C   -0.168212
     6  C    0.350156
     7  C    0.063473
     8  C   -0.079968
     9  C   -0.152799
    10  C   -0.183667
    11  H    0.200934
    12  H    0.201204
    13  H    0.184047
    14  H    0.227995
    15  H    0.200539
    16  H    0.178567
    17  N   -0.478995
    18  N   -0.520664
    19  Ir  -0.293565
    20  O   -0.526772
    21  O   -0.538451
    22  O   -0.530457
    23  B    0.492630
    24  B    0.519741
    25  B    0.536562
    26  O   -0.491687
    27  O   -0.523895
    28  C    0.293628
    29  C    0.291892
    30  C    0.298549
    31  C    0.289765
    32  C    0.306046
    33  C    0.290637
    34  O   -0.509523
    35  C   -0.510730
    36  H    0.165005
    37  H    0.170682
    38  H    0.151241
    39  C   -0.505337
    40  H    0.187171
    41  H    0.143763
    42  H    0.149962
    43  C   -0.509347
    44  H    0.182025
    45  H    0.159758
    46  H    0.152360
    47  C   -0.504796
    48  H    0.151031
    49  H    0.165592
    50  H    0.169334
    51  C   -0.522094
    52  H    0.178133
    53  H    0.165727
    54  H    0.155666
    55  C   -0.508763
    56  H    0.153761
    57  H    0.164390
    58  H    0.169589
    59  C   -0.516834
    60  H    0.148147
    61  H    0.173253
    62  H    0.169006
    63  C   -0.499496
    64  H    0.172865
    65  H    0.140183
    66  H    0.180618
    67  C   -0.496162
    68  H    0.174970
    69  H    0.142586
    70  H    0.163618
    71  C   -0.507443
    72  H    0.169273
    73  H    0.147814
    74  H    0.168650
    75  C   -0.510558
    76  H    0.158916
    77  H    0.161196
    78  H    0.161650
    79  C   -0.506606
    80  H    0.151114
    81  H    0.171098
    82  H    0.167725
    83  H    0.200662
    84  C    0.581491
    85  O   -0.517343
    86  C   -0.411845
    87  H    0.180055
    88  H    0.157335
    89  C   -0.342995
    90  H    0.195471
    91  H    0.233654
    92  N   -0.358126
    93  C   -0.364445
    94  H    0.161450
    95  H    0.179707
    96  H    0.199591
    97  C   -0.468388
    98  H    0.148384
    99  H    0.181714
   100  C    0.972533
   101  F   -0.314481
   102  F   -0.301935
   103  F   -0.315146
   104  C    0.970979
   105  F   -0.311423
   106  F   -0.314428
   107  F   -0.308417
   108  H    0.158090
 Sum of Mulliken charges =  -0.00000
 Mulliken charges with hydrogens summed into heavy atoms:
               1
     1  C    0.318812
     2  C    0.243439
     3  C   -0.076622
     4  C    0.036949
     5  C    0.015835
     6  C    0.350156
     7  C    0.291467
     8  C   -0.079968
     9  C    0.047740
    10  C   -0.005101
    17  N   -0.478995
    18  N   -0.520664
    19  Ir  -0.092903
    20  O   -0.526772
    21  O   -0.538451
    22  O   -0.530457
    23  B    0.492630
    24  B    0.519741
    25  B    0.536562
    26  O   -0.491687
    27  O   -0.523895
    28  C    0.293628
    29  C    0.291892
    30  C    0.298549
    31  C    0.289765
    32  C    0.306046
    33  C    0.290637
    34  O   -0.509523
    35  C   -0.023801
    39  C   -0.024442
    43  C   -0.015203
    47  C   -0.018839
    51  C   -0.022567
    55  C   -0.021022
    59  C   -0.026428
    63  C   -0.005830
    67  C   -0.014988
    71  C   -0.021707
    75  C   -0.028797
    79  C   -0.016670
    84  C    0.581491
    85  O   -0.517343
    86  C   -0.074454
    89  C    0.086130
    92  N   -0.358126
    93  C    0.176302
    97  C    0.019800
   100  C    0.972533
   101  F   -0.314481
   102  F   -0.301935
   103  F   -0.315146
   104  C    0.970979
   105  F   -0.311423
   106  F   -0.314428
   107  F   -0.308417
 APT charges:
               1
     1  C    0.194708
     2  C    0.065863
     3  C   -0.210605
     4  C    0.088675
     5  C   -0.163343
     6  C    0.214897
     7  C    0.025287
     8  C   -0.193272
     9  C    0.100658
    10  C   -0.191274
    11  H    0.109279
    12  H    0.064635
    13  H    0.048087
    14  H    0.153434
    15  H    0.057449
    16  H    0.045673
    17  N   -0.178073
    18  N   -0.079744
    19  Ir  -1.134125
    20  O   -0.908406
    21  O   -1.021838
    22  O   -0.967456
    23  B    1.252618
    24  B    1.212843
    25  B    1.292453
    26  O   -0.939358
    27  O   -0.953152
    28  C    0.462728
    29  C    0.456982
    30  C    0.487879
    31  C    0.481665
    32  C    0.505269
    33  C    0.493485
    34  O   -0.973501
    35  C   -0.009000
    36  H   -0.002665
    37  H    0.000168
    38  H   -0.013897
    39  C   -0.041287
    40  H    0.035424
    41  H   -0.007665
    42  H   -0.018950
    43  C   -0.027870
    44  H    0.008144
    45  H   -0.000076
    46  H   -0.023038
    47  C    0.003608
    48  H   -0.019306
    49  H    0.000250
    50  H    0.002137
    51  C   -0.038595
    52  H    0.006820
    53  H    0.001404
    54  H   -0.021023
    55  C   -0.012295
    56  H   -0.019443
    57  H    0.004169
    58  H   -0.000471
    59  C   -0.006202
    60  H   -0.017232
    61  H    0.000038
    62  H   -0.000892
    63  C   -0.030240
    64  H    0.008943
    65  H   -0.030195
    66  H    0.021318
    67  C   -0.033322
    68  H    0.025280
    69  H   -0.027363
    70  H   -0.002180
    71  C   -0.004709
    72  H   -0.002368
    73  H   -0.017028
    74  H   -0.000418
    75  C   -0.029420
    76  H   -0.021754
    77  H   -0.004942
    78  H    0.001455
    79  C   -0.009087
    80  H   -0.016311
    81  H    0.005120
    82  H   -0.000833
    83  H    0.283219
    84  C    0.806916
    85  O   -0.641172
    86  C    0.008495
    87  H   -0.021774
    88  H   -0.018185
    89  C    0.428137
    90  H   -0.046753
    91  H   -0.003395
    92  N   -0.775808
    93  C    0.278323
    94  H   -0.036996
    95  H   -0.013019
    96  H    0.029498
    97  C    0.066883
    98  H   -0.012092
    99  H    0.007973
   100  C    1.767387
   101  F   -0.512459
   102  F   -0.592015
   103  F   -0.576118
   104  C    1.828187
   105  F   -0.625247
   106  F   -0.594723
   107  F   -0.524929
   108  H   -0.024952
 Sum of APT charges =  -0.00000
 APT charges with hydrogens summed into heavy atoms:
               1
     1  C    0.194708
     2  C    0.175142
     3  C   -0.210605
     4  C    0.153310
     5  C   -0.115255
     6  C    0.214897
     7  C    0.178721
     8  C   -0.193272
     9  C    0.158107
    10  C   -0.145601
    17  N   -0.178073
    18  N   -0.079744
    19  Ir  -0.850906
    20  O   -0.908406
    21  O   -1.021838
    22  O   -0.967456
    23  B    1.252618
    24  B    1.212843
    25  B    1.292453
    26  O   -0.939358
    27  O   -0.953152
    28  C    0.462728
    29  C    0.456982
    30  C    0.487879
    31  C    0.481665
    32  C    0.505269
    33  C    0.493485
    34  O   -0.973501
    35  C   -0.025394
    39  C   -0.032478
    43  C   -0.042840
    47  C   -0.013311
    51  C   -0.051394
    55  C   -0.028040
    59  C   -0.024288
    63  C   -0.030174
    67  C   -0.037585
    71  C   -0.024522
    75  C   -0.054661
    79  C   -0.021112
    84  C    0.806916
    85  O   -0.641172
    86  C   -0.031464
    89  C    0.377990
    92  N   -0.775808
    93  C    0.257807
    97  C    0.037811
   100  C    1.767387
   101  F   -0.512459
   102  F   -0.592015
   103  F   -0.576118
   104  C    1.828187
   105  F   -0.625247
   106  F   -0.594723
   107  F   -0.524929
 Electronic spatial extent (au):  <R**2>=          32169.5729
 Charge=              0.0000 electrons
 Dipole moment (field-independent basis, Debye):
    X=              1.6181    Y=             -1.2373    Z=              2.1276  Tot=              2.9455
 Quadrupole moment (field-independent basis, Debye-Ang):
   XX=           -330.6392   YY=           -319.7430   ZZ=           -330.5328
   XY=             -6.0866   XZ=             -2.6954   YZ=            -12.5545
 Traceless Quadrupole moment (field-independent basis, Debye-Ang):
   XX=             -3.6675   YY=              7.2287   ZZ=             -3.5612
   XY=             -6.0866   XZ=             -2.6954   YZ=            -12.5545
 Octapole moment (field-independent basis, Debye-Ang**2):
  XXX=             14.4841  YYY=            -78.3048  ZZZ=            -42.9047  XYY=             53.4184
  XXY=             12.6506  XXZ=            -52.2977  XZZ=             -0.5467  YZZ=            -11.0393
  YYZ=             64.4713  XYZ=            -23.1653
 Hexadecapole moment (field-independent basis, Debye-Ang**3):
 XXXX=         -19282.3077 YYYY=         -13082.4498 ZZZZ=          -7783.4473 XXXY=            -40.1484
 XXXZ=             20.6424 YYYX=            250.1704 YYYZ=           -291.2340 ZZZX=            -24.4939
 ZZZY=             -2.6625 XXYY=          -5443.9429 XXZZ=          -4295.0707 YYZZ=          -3572.6754
 XXYZ=            -96.6575 YYXZ=            146.8994 ZZXY=             36.7880
 N-N= 9.733202123110D+03 E-N=-2.607296431983D+04  KE= 2.745554223315D+03
  Exact polarizability:     553.343       0.146     506.411       0.486     -28.857     406.650
 Approx polarizability:     776.367      22.284     747.912      15.848     -67.236     611.304
   1 Symmetry operations used in ECPInt.
 ECPInt:  NShTT=   54615 NPrTT=  339395 LenC2=   41048 LenP2D=  127259.
 LDataN:  DoStor=T MaxTD1= 8 Len=  415
 Calling FoFJK, ICntrl=    100127 FMM=F ISym2X=0 I1Cent= 0 IOpClX= 0 NMat=1 NMatS=1 NMatT=0.
 Defaulting to unpruned grid for atomic number  77.
 Defaulting to unpruned grid for atomic number  77.
 Defaulting to unpruned grid for atomic number  77.
 Defaulting to unpruned grid for atomic number  77.
 Defaulting to unpruned grid for atomic number  77.
 Defaulting to unpruned grid for atomic number  77.
 Defaulting to unpruned grid for atomic number  77.
 Defaulting to unpruned grid for atomic number  77.
 Defaulting to unpruned grid for atomic number  77.
 Defaulting to unpruned grid for atomic number  77.
 Defaulting to unpruned grid for atomic number  77.
 Defaulting to unpruned grid for atomic number  77.
 Defaulting to unpruned grid for atomic number  77.
 Defaulting to unpruned grid for atomic number  77.
 Defaulting to unpruned grid for atomic number  77.
 Defaulting to unpruned grid for atomic number  77.
 Full mass-weighted force constant matrix:
 Low frequencies --- -732.7976   -5.5381   -0.0005    0.0002    0.0005    4.0288
 Low frequencies ---    5.9866   21.4610   28.6292
 ******    1 imaginary frequencies (negative Signs) ****** 
 Diagonal vibrational polarizability:
       85.5553854      83.1909277     140.1481067
 Harmonic frequencies (cm**-1), IR intensities (KM/Mole), Raman scattering
 activities (A**4/AMU), depolarization ratios for plane and unpolarized
 incident light, reduced masses (AMU), force constants (mDyne/A),
 and normal coordinates:
                      1                      2                      3
                      A                      A                      A
 Frequencies --   -732.7965                21.2257                28.5171
 Red. masses --      1.1531                 5.8004                 4.6036
 Frc consts  --      0.3648                 0.0015                 0.0022
 IR Inten    --    358.8454                 0.8757                 0.2034
  Atom AN      X      Y      Z        X      Y      Z        X      Y      Z
     1   6    -0.00   0.00   0.00     0.03  -0.02  -0.02     0.00  -0.04  -0.06
     2   6     0.00  -0.00  -0.00     0.01  -0.01   0.01    -0.01  -0.03   0.01
     3   6    -0.00  -0.00   0.00     0.03  -0.01  -0.05    -0.01  -0.03  -0.01
     4   6    -0.00  -0.00  -0.00     0.04  -0.02  -0.09     0.00  -0.05  -0.07
     5   6    -0.00   0.00  -0.00     0.04  -0.03  -0.07     0.01  -0.05  -0.10
     6   6     0.00   0.01   0.00     0.03  -0.02  -0.01     0.00  -0.04  -0.06
     7   6    -0.00   0.00   0.00     0.00   0.00   0.06    -0.02   0.00   0.02
     8   6     0.00   0.00  -0.00     0.03  -0.04  -0.01    -0.01  -0.02  -0.01
     9   6     0.00   0.00  -0.00     0.06  -0.07  -0.08     0.01  -0.05  -0.08
    10   6     0.00   0.00  -0.00     0.05  -0.06  -0.08     0.02  -0.06  -0.10
    11   1     0.01  -0.00  -0.01    -0.00   0.00   0.04    -0.02  -0.02   0.05
    12   1    -0.00  -0.00  -0.00     0.05  -0.03  -0.13     0.01  -0.05  -0.10
    13   1     0.00  -0.00  -0.00     0.05  -0.03  -0.10     0.02  -0.06  -0.15
    14   1    -0.00   0.00   0.01    -0.02   0.03   0.12    -0.04   0.02   0.06
    15   1     0.00   0.00   0.00     0.08  -0.11  -0.14     0.02  -0.07  -0.11
    16   1     0.00   0.00  -0.01     0.07  -0.09  -0.13     0.03  -0.09  -0.15
    17   7     0.00   0.00   0.00     0.01  -0.01   0.02    -0.01  -0.03  -0.02
    18   7    -0.00   0.02   0.01     0.00   0.01   0.05    -0.02  -0.01  -0.01
    19  77     0.01  -0.00  -0.01    -0.00   0.00   0.06    -0.01  -0.01  -0.00
    20   8    -0.00   0.00   0.00    -0.10   0.03   0.02     0.01   0.03   0.02
    21   8     0.00  -0.00   0.00     0.00   0.01   0.01    -0.01   0.00   0.02
    22   8     0.00  -0.00   0.00     0.03   0.00   0.01    -0.04  -0.01   0.05
    23   5    -0.00  -0.01  -0.01     0.01   0.00   0.03    -0.01  -0.01   0.00
    24   5    -0.00   0.01   0.01    -0.03   0.02   0.03    -0.00   0.01  -0.00
    25   5    -0.01   0.01   0.03     0.01   0.00   0.04     0.00  -0.01   0.00
    26   8    -0.00  -0.00   0.00    -0.00   0.00   0.04     0.05  -0.02  -0.04
    27   8    -0.00   0.00   0.00    -0.01   0.04   0.01    -0.01   0.01  -0.03
    28   6    -0.00   0.00   0.00    -0.07   0.06  -0.01     0.01   0.04  -0.02
    29   6    -0.00   0.00   0.00    -0.12   0.06  -0.02     0.01   0.04   0.02
    30   6     0.00   0.00  -0.00     0.02   0.01   0.01    -0.02  -0.01   0.05
    31   6    -0.00   0.00   0.00     0.01   0.00   0.03     0.02  -0.01  -0.04
    32   6    -0.00  -0.00  -0.00     0.03   0.00  -0.03    -0.01  -0.00   0.02
    33   6    -0.00   0.00   0.00     0.05  -0.01  -0.02    -0.00  -0.02  -0.02
    34   8     0.00   0.00   0.00     0.04  -0.01   0.02    -0.01  -0.03  -0.01
    35   6    -0.00  -0.00   0.00    -0.19   0.07  -0.02     0.03   0.08   0.03
    36   1    -0.00  -0.00   0.00    -0.22   0.07  -0.02     0.02   0.08   0.07
    37   1    -0.00  -0.00  -0.00    -0.20   0.04   0.02     0.04   0.09   0.02
    38   1    -0.00  -0.00   0.00    -0.21   0.09  -0.05     0.04   0.11   0.03
    39   6    -0.00  -0.00   0.00    -0.10   0.10  -0.07     0.01   0.02   0.04
    40   1    -0.00   0.00   0.00    -0.05   0.10  -0.08    -0.01   0.01   0.04
    41   1     0.00   0.00  -0.00    -0.13   0.10  -0.08     0.01   0.02   0.06
    42   1    -0.00  -0.00  -0.00    -0.12   0.12  -0.11     0.01   0.03   0.05
    43   6    -0.00   0.00   0.00    -0.11   0.03   0.03     0.02   0.07  -0.04
    44   1    -0.00  -0.00   0.00    -0.13   0.00   0.08     0.02   0.08  -0.05
    45   1    -0.00   0.00   0.00    -0.07   0.03   0.04     0.01   0.07  -0.07
    46   1     0.00   0.00   0.00    -0.16   0.05   0.01     0.04   0.09  -0.04
    47   6    -0.00   0.00   0.00    -0.06   0.09  -0.07     0.00   0.04  -0.02
    48   1    -0.00   0.00   0.00    -0.10   0.11  -0.09     0.02   0.06  -0.01
    49   1    -0.00   0.00   0.00    -0.02   0.08  -0.07    -0.00   0.04  -0.05
    50   1    -0.00  -0.00   0.00    -0.03   0.10  -0.10    -0.00   0.02  -0.01
    51   6     0.00  -0.00  -0.00     0.06  -0.02  -0.02    -0.03  -0.02   0.04
    52   1     0.00  -0.00  -0.00     0.07  -0.02   0.01    -0.04  -0.04   0.03
    53   1    -0.00   0.00  -0.00     0.04  -0.01  -0.02    -0.03  -0.01   0.06
    54   1     0.00   0.00   0.00     0.08  -0.03  -0.05    -0.04  -0.03   0.04
    55   6     0.00  -0.00   0.00     0.01   0.01  -0.07    -0.00   0.02   0.02
    56   1     0.00  -0.00  -0.00     0.03  -0.00  -0.10    -0.00   0.02   0.02
    57   1    -0.00  -0.00  -0.00     0.00   0.02  -0.06    -0.01   0.03   0.04
    58   1    -0.00  -0.00   0.00    -0.02   0.03  -0.08     0.02   0.03   0.01
    59   6     0.00  -0.00   0.00     0.08  -0.03  -0.04    -0.01  -0.05  -0.02
    60   1     0.00  -0.00   0.00     0.09  -0.03  -0.07    -0.01  -0.04  -0.02
    61   1     0.00  -0.00   0.00     0.09  -0.03  -0.03    -0.01  -0.06  -0.04
    62   1     0.00  -0.00   0.00     0.10  -0.04  -0.02    -0.02  -0.07  -0.01
    63   6    -0.00   0.00   0.00     0.03   0.00  -0.04     0.01  -0.00  -0.04
    64   1    -0.00   0.00  -0.00     0.04  -0.00  -0.03     0.00  -0.01  -0.07
    65   1    -0.00   0.00   0.00     0.03   0.01  -0.07     0.01  -0.00  -0.03
    66   1    -0.00   0.00   0.00    -0.00   0.02  -0.03     0.03   0.02  -0.04
    67   6    -0.00   0.00   0.00     0.03   0.00   0.05    -0.03   0.03  -0.11
    68   1    -0.00   0.00   0.00     0.05   0.00   0.06    -0.09   0.05  -0.11
    69   1     0.00  -0.00   0.00     0.03   0.01   0.04    -0.04   0.03  -0.11
    70   1     0.00   0.00   0.00     0.01  -0.01   0.07     0.01   0.04  -0.17
    71   6    -0.00  -0.00  -0.00    -0.01   0.00   0.03     0.10  -0.04  -0.05
    72   1    -0.00   0.00   0.00    -0.02   0.00   0.05     0.13  -0.04  -0.12
    73   1    -0.00  -0.00   0.00    -0.00   0.00   0.02     0.07  -0.03  -0.04
    74   1    -0.00  -0.00   0.00    -0.03   0.01   0.01     0.14  -0.07   0.00
    75   6    -0.00  -0.00  -0.00     0.01   0.01  -0.02     0.03  -0.04   0.13
    76   1    -0.00  -0.00  -0.00     0.01   0.01  -0.02     0.04  -0.04   0.14
    77   1     0.00   0.00  -0.00     0.02   0.01  -0.03     0.00  -0.03   0.19
    78   1     0.00  -0.00  -0.00    -0.01   0.01  -0.01     0.10  -0.06   0.12
    79   6    -0.00  -0.00   0.00     0.05   0.00   0.00    -0.11   0.00   0.06
    80   1    -0.00  -0.00  -0.00     0.04   0.01   0.00    -0.08  -0.00   0.06
    81   1    -0.00  -0.00   0.00     0.06  -0.01   0.02    -0.16   0.03   0.01
    82   1     0.00   0.00  -0.00     0.06   0.01  -0.02    -0.14  -0.01   0.13
    83   1    -0.07   0.74   0.58     0.01  -0.00   0.06    -0.02  -0.00   0.00
    84   6    -0.00   0.00   0.00    -0.02  -0.00  -0.02     0.06   0.06  -0.02
    85   8     0.01  -0.00   0.00    -0.02  -0.00  -0.02     0.09   0.03  -0.05
    86   6     0.00   0.00  -0.00    -0.02  -0.01  -0.06     0.06   0.12  -0.02
    87   1     0.01  -0.00  -0.00    -0.04   0.00  -0.06     0.05   0.16  -0.01
    88   1     0.00  -0.00  -0.00    -0.00  -0.02  -0.06     0.03   0.11   0.00
    89   6    -0.03  -0.07   0.04    -0.02   0.01   0.04     0.01  -0.00   0.00
    90   1    -0.03   0.13   0.17    -0.04   0.02   0.06    -0.00  -0.01   0.00
    91   1     0.03  -0.09  -0.20    -0.02   0.01   0.04     0.05  -0.02   0.00
    92   7    -0.02  -0.00   0.01    -0.02   0.01   0.01     0.02   0.05   0.01
    93   6    -0.01  -0.00   0.00    -0.03   0.01   0.02    -0.02   0.07   0.03
    94   1    -0.00   0.00   0.00    -0.08   0.03   0.03     0.02   0.03   0.04
    95   1    -0.01  -0.01   0.00    -0.00   0.01   0.06    -0.05   0.12  -0.02
    96   1    -0.01  -0.01   0.01    -0.02  -0.01  -0.02    -0.06   0.09   0.10
    97   6     0.00   0.00  -0.00    -0.02  -0.02  -0.09     0.10   0.13  -0.06
    98   1    -0.00   0.00  -0.00     0.01  -0.02  -0.08     0.11   0.08  -0.08
    99   1    -0.00   0.00   0.00    -0.05  -0.01  -0.08     0.13   0.14  -0.09
   100   6     0.00  -0.00  -0.00     0.03  -0.01  -0.07    -0.01  -0.02   0.03
   101   9    -0.00   0.00   0.00     0.00  -0.00  -0.07    -0.01  -0.00   0.06
   102   9    -0.00   0.00   0.00     0.05  -0.01  -0.08    -0.05  -0.06   0.05
   103   9    -0.00   0.00   0.00     0.02  -0.00  -0.10     0.00  -0.01   0.03
   104   6     0.00   0.00  -0.00     0.03  -0.05   0.01    -0.02   0.01   0.05
   105   9     0.00   0.00   0.00     0.03  -0.10   0.09    -0.07   0.01   0.06
   106   9     0.00   0.00  -0.00     0.02   0.05   0.02     0.02   0.02   0.07
   107   9    -0.00   0.00  -0.00     0.04  -0.09  -0.07    -0.03   0.01   0.07
   108   1     0.00  -0.00  -0.00    -0.02  -0.02  -0.12     0.10   0.17  -0.06
                      4                      5                      6
                      A                      A                      A
 Frequencies --     31.0610                39.6161                40.8910
 Red. masses --      4.6239                 5.8020                 4.7769
 Frc consts  --      0.0026                 0.0054                 0.0047
 IR Inten    --      0.0705                 0.4829                 0.2057
  Atom AN      X      Y      Z        X      Y      Z        X      Y      Z
     1   6     0.00   0.02   0.02    -0.00   0.01   0.01     0.01   0.02   0.01
     2   6     0.02   0.01  -0.03     0.01  -0.00  -0.05    -0.00   0.02  -0.01
     3   6     0.02   0.01  -0.04     0.00   0.00  -0.02    -0.00   0.04   0.01
     4   6     0.01   0.01  -0.01    -0.00   0.01   0.01     0.00   0.04   0.05
     5   6     0.00   0.02   0.02    -0.01   0.02   0.02     0.01   0.03   0.05
     6   6    -0.00   0.03   0.04    -0.01   0.02   0.04     0.02  -0.00  -0.00
     7   6     0.01   0.01  -0.00    -0.00  -0.02  -0.00     0.01  -0.02  -0.00
     8   6     0.00   0.03   0.04    -0.02   0.03   0.09     0.03  -0.04  -0.03
     9   6    -0.01   0.06   0.09    -0.04   0.08   0.17     0.04  -0.04  -0.05
    10   6    -0.01   0.05   0.09    -0.03   0.07   0.14     0.03  -0.02  -0.03
    11   1     0.02   0.00  -0.05     0.02  -0.01  -0.08    -0.00   0.02  -0.03
    12   1     0.01   0.01  -0.02    -0.01   0.01   0.03     0.00   0.06   0.07
    13   1    -0.00   0.03   0.04    -0.02   0.02   0.05     0.01   0.04   0.07
    14   1     0.02  -0.01  -0.04     0.01  -0.05  -0.06     0.00  -0.02   0.01
    15   1    -0.03   0.08   0.13    -0.06   0.12   0.25     0.06  -0.06  -0.08
    16   1    -0.02   0.07   0.12    -0.04   0.11   0.20     0.04  -0.02  -0.04
    17   7     0.01   0.02  -0.00     0.00   0.00  -0.03     0.00   0.01  -0.01
[...]
 0164,0.00000248,0.00000530,0.00000065,0.00001179,-0.00001575,-0.000008
 23,-0.00000824,0.00000283,-0.00000179,0.00000069,-0.00001035,-0.000000
 90,0.00000150,0.00000830,-0.00011445,-0.00013840,0.00000630,0.00002779
 ,0.00007387,-0.00003022,0.00004096,0.00004233,0.00002848,0.00001337,0.
 00002464,0.00000435,0.09187083,-0.17540976,0.06744306,0.03132657,-0.07
 641055,0.00363579,0.00421775,-0.01436519,0.04156975,-0.13087041,0.2695
 0840,0.00022793,-0.00010312,0.00012577,-0.00004006,0.00003630,-0.00000
 151,-0.00010377,-0.00011671,0.00003187,0.00011613,0.00001411,0.0000263
 2,-0.00015309,-0.00002229,-0.00002442,0.00036147,-0.00001565,0.0001421
 6,0.00066310,0.00259411,-0.00141502,-0.01150176,0.01230671,0.00004809,
 -0.00231372,-0.00106466,0.00180923,-0.00010633,0.00015013,-0.00063405,
 -0.00001868,0.00001688,0.00000043,-0.00000549,0.00000380,-0.00000475,0
 .00004342,-0.00003319,-0.00001252,-0.00061693,-0.00163694,0.00140113,0
 .00039024,-0.00024162,0.00013848,-0.00019904,-0.00016168,-0.00017098,-
 0.00013214,-0.00010625,-0.00003577,-0.00006431,-0.00059934,0.00024759,
 0.00030035,-0.00020545,0.00027743,-0.00007486,-0.00032104,0.00015566,0
 .00107426,0.00001579,0.00043564,0.00003348,-0.00009843,0.00004360,-0.0
 0124862,0.00010315,-0.00037682,-0.00012092,0.00041692,-0.00034459,-0.0
 0008861,0.00017401,-0.00011438,0.00006519,-0.00012787,0.00006683,0.000
 06710,-0.00021337,0.00013949,-0.00002542,0.00011107,-0.00009157,0.0000
 5469,-0.00003074,0.00004509,0.00000257,0.00005075,-0.00001306,-0.00001
 003,-0.00000070,-0.00001274,-0.00035585,-0.00023251,-0.00055268,-0.000
 28073,-0.00009212,0.00014518,0.00054834,-0.00003276,0.00019677,0.00003
 924,0.00010134,0.00000719,0.00001772,-0.00005898,0.00003800,-0.0000101
 2,-0.00002428,0.00000974,0.00000841,-0.00001133,-0.00000182,-0.0001445
 1,0.00030603,-0.00007377,-0.00006620,-0.00024755,-0.00018703,-0.000415
 84,-0.00076599,-0.00170014,0.00000243,-0.00000393,-0.00002216,0.000005
 75,-0.00004264,0.00001859,0.00001831,0.00000836,0.00000033,-0.00001198
 ,-0.00002608,-0.00000710,-0.00000278,0.00001171,0.00001161,-0.00003896
 ,-0.00003564,-0.00001858,0.00000252,0.00000906,0.00001782,-0.00000336,
 -0.00002826,-0.00000695,0.00001105,0.00002296,-0.00001394,-0.00021725,
 -0.00022232,0.00028994,0.00000815,0.00001442,-0.00001782,0.00034099,0.
 00341132,-0.00358996,0.00002734,0.00014525,-0.00001700,-0.00011684,-0.
 00022931,0.00017356,0.00003670,0.00003868,-0.00002064,0.00024148,-0.00
 018369,-0.00013186,0.00001174,0.00013124,0.00003645,0.00005908,0.00001
 824,-0.00000940,0.00001495,-0.00003426,0.00001759,0.00001755,0.0000517
 3,-0.00000406,-0.00003917,-0.00000730,0.00005097,0.00010216,0.00006363
 ,-0.00005649,0.00001375,0.00006170,-0.00000158,0.00000869,-0.00002628,
 0.00000529,-0.00003161,-0.00000767,0.00000211,-0.00001740,0.00001139,-
 0.00001317,-0.00000015,0.00000311,0.00000198,0.00000588,-0.00000076,0.
 00000128,0.00001075,-0.00001362,0.00000270,-0.00000856,0.00000647,-0.0
 0000217,0.00001135,-0.00001377,0.00000256,0.00000294,-0.00000007,0.000
 00448,-0.00000643,0.00000080,-0.00000135,-0.00000597,-0.00000347,-0.00
 000076,-0.00000271,-0.00000732,-0.00000098,0.00001171,-0.00000180,0.00
 000609,-0.00000302,0.00000713,-0.00000010,0.00000423,-0.00000685,-0.00
 000198,-0.00000343,-0.00000665,-0.00000013,-0.00000266,0.00000602,-0.0
 0000119,0.00000869,0.00000150,0.00000378,-0.00001564,0.00002707,-0.000
 05140,0.00000685,0.00003493,-0.00004173,-0.00000256,-0.00002109,0.0001
 0403,-0.00000366,-0.00001649,-0.00001837,-0.00000257,-0.00000248,0.000
 01278,0.00000493,0.00001171,-0.00000714,0.00005652,0.00005630,-0.00016
 385,-0.00003349,-0.00000978,0.00007104,-0.00004967,0.00004933,0.000004
 52,-0.00007742,0.00001673,0.00010550,0.00001560,0.00003760,-0.00003559
 ,-0.00000314,-0.00000390,0.00000038,-0.00000878,0.00000091,0.00000047,
 0.00000533,-0.00000842,0.00000476,0.00000366,0.00000118,-0.00001295,0.
 00000352,-0.00000769,0.00001084,0.00000162,0.00000404,0.00000245,0.000
 25061,0.00013371,-0.00002548,-0.00005494,-0.00007817,0.00003455,-0.000
 07481,-0.00004922,-0.00003745,-0.00007529,-0.00000053,0.00000628,-0.06
 396342,0.06665216,-0.12064962,0.00829051,-0.00859991,0.01875029,-0.015
 85794,0.04837491,-0.05369624,0.08520615,-0.11956092,0.15915891,0.00003
 672,-0.00002983,-0.00005083,0.00001157,-0.00001551,-0.00002573,0.00000
 164,-0.00003802,0.00001601,-0.00009770,0.00005435,-0.00000909,0.000046
 83,0.00002709,0.00003617,0.00005780,0.00000193,-0.00001200,-0.00000846
 ,-0.00002711,0.00000495,-0.00002655,0.00002971,-0.00001752,0.00003204,
 -0.00001835,0.00001920,-0.00003634,-0.00000291,0.00000519,-0.00000313,
 -0.00001376,-0.00001636,-0.00004121,-0.00002636,0.00001734,0.00000370,
 0.00000918,-0.00002513,0.00000740,-0.00000699,-0.00000002,-0.00000053,
 -0.00000220,-0.00000121,0.00000463,0.00000036,-0.00000548,-0.00000788,
 0.00004578,-0.00000298,0.00003061,0.00005428,-0.00003079,-0.00009664,0
 .00010666,0.00019566,-0.00007262,0.00001164,0.00009858,-0.00009495,0.0
 0002630,-0.00002371,0.00005132,0.00010332,0.00004980,0.00013566,-0.000
 06564,0.00003787,0.00008043,-0.00008113,-0.00009522,-0.00003410,-0.000
 18337,-0.00006154,0.00000991,0.00011209,0.00001962,-0.00006191,0.00005
 214,0.00008024,0.00001133,-0.00000482,-0.00003931,0.00003465,-0.000015
 64,-0.00002765,-0.00001430,-0.00005266,0.00000091,-0.00001498,-0.00004
 331,-0.00002819,0.00002886,-0.00001619,0.00002629,0.00005140,-0.000024
 40,0.00000756,-0.00008038,0.00005770,-0.00003737,-0.00000615,0.0000000
 5,0.00000336,0.00000186,-0.00000135,-0.00000251,0.00000272,0.00000010,
 -0.00000126,-0.00000410,0.00000179,0.00000592,-0.00000559,0.00000094,0
 .00000542,0.00000506,-0.00000209,-0.00000106,0.00000363,0.00000122,-0.
 00000387,-0.00000698,0.00000243,0.00000355,-0.00000005,0.00000013,0.00
 000611,-0.00000207,-0.00000113,-0.00000465,0.00000096,0.00000257,-0.00
 000232,-0.00000182,0.00000008,0.00000700,-0.00000026,0.00000142,0.0000
 0429,-0.00000409,-0.00000011,0.00000435,0.00000086,0.00000332,-0.00000
 198,0.00000201,-0.00000124,-0.00000101,-0.00000021,0.00000014,-0.00000
 687,0.00000053,0.00000010,0.00000634,0.00000357,-0.00000013,0.00000180
 ,-0.00000581,0.00000266,-0.00000448,-0.00000318,0.,-0.00000154,-0.0000
 0433,0.00000284,-0.00000276,0.00000069,-0.00000209,0.00000174,0.000001
 52,0.00000016,0.00000175,-0.00000373,0.00000208,-0.00000217,-0.0000062
 0,0.00000171,-0.00000115,0.00000358,0.00000063,-0.00000041,0.00000279,
 -0.00000081,0.00000253,-0.00000597,0.00000346,0.00000085,0.00000353,-0
 .00000137,-0.00000003,-0.00000691,0.00000465,0.00000103,0.00000265,-0.
 00000281,-0.00000164,0.00000234,0.00000468,0.00000422,-0.00000065,-0.0
 0000371,-0.00000372,0.00000068,0.00000686,0.00000499,-0.00000083,-0.00
 000241,-0.00000124,0.00000179,0.00000453,-0.00000052,-0.00000208,-0.00
 000096,-0.00000169,0.00000248,0.00000619,0.00000309,-0.00000174,-0.000
 00428,0.00000018,-0.00000494,0.00001378,-0.00001806,0.00000160,0.00001
 301,0.00000404,-0.00000440,-0.00000820,-0.00000116,0.00000481,-0.00001
 150,0.00001075,-0.00000325,0.00000502,0.00000072,0.00000117,0.00000672
 ,0.00000155,-0.00000104,-0.00000145,0.00000084,0.00000218,-0.00000452,
 0.00000140,0.00004458,-0.00009847,-0.00012899,0.00070665,0.00044474,-0
 .00018593,-0.00039407,0.00144656,-0.00029283,-0.01047347,-0.00219411,0
 .00101029,0.00022301,-0.00005800,-0.00032756,0.00036284,0.00012505,0.0
 0032035,0.00033497,0.00023930,-0.00020802,-0.00010903,0.00004943,0.000
 02941,0.00004040,0.00000246,0.00005378,-0.00121252,0.00053058,-0.00006
 141,-0.00022353,-0.00025650,0.00005558,0.00003665,0.00006015,0.0000310
 2,0.00002228,-0.00002673,0.00000139,-0.00000384,0.00005790,-0.00001798
 ,-0.31417551,-0.01152802,0.01365393,-0.00623745,-0.00018302,-0.0009097
 0,-0.00815768,0.00062719,0.00152499,-0.00093765,0.00040072,0.00015098,
 0.00015790,-0.00007639,0.00003085,0.00016094,-0.00005354,-0.00006636,0
 .00045225,-0.00034040,-0.00024218,0.00011623,0.00004406,-0.00000582,-0
 .00003106,-0.00002850,-0.00001051,-0.00003861,-0.00001438,0.00002276,-
 0.00003029,-0.00000125,-0.00000451,0.33945454,0.00007252,-0.00000850,0
 .00002649,-0.00001943,-0.00000622,0.00001614,-0.00001847,-0.00003369,0
 .00005319,-0.00002678,0.00004464,-0.00000502,-0.00003756,0.00001471,0.
 00001660,-0.00001462,0.00001464,-0.00000622,0.00001682,0.00001255,-0.0
 0000260,-0.00000479,-0.00001581,0.00000400,-0.00000342,0.00002341,-0.0
 0001179,0.00000002,-0.00000102,0.00000103,0.00000749,-0.00000185,0.000
 00900,-0.00001718,0.00001822,-0.00001817,0.00000817,0.00000804,-0.0000
 2783,-0.00000135,-0.00000316,0.00000209,-0.00000004,-0.00000042,-0.000
 00066,0.00000212,0.00000479,-0.00001027,0.00003466,-0.00001795,0.00000
 830,-0.00003500,-0.00005678,0.00002230,0.00004246,-0.00003318,-0.00011
 126,0.00001745,0.00000399,-0.00002796,0.00001842,0.00000344,-0.0000000
 6,-0.00003279,-0.00002208,-0.00002062,-0.00003570,0.00000537,0.0000058
 2,-0.00000172,0.00001428,0.00001252,0.00003040,0.00005407,0.00003315,-
 0.00000901,-0.00002497,-0.00001070,0.00001222,-0.00000901,-0.00001898,
 -0.00000030,0.00000111,0.00000769,-0.00000341,0.00000186,0.00000024,0.
 00000526,0.00001082,-0.00000478,0.00000713,0.00001056,0.00001048,-0.00
 000373,0.00000201,-0.00000316,-0.00001586,0.00000582,-0.00000314,0.000
 02037,-0.00001034,-0.00000222,0.00000233,-0.00000097,-0.00000011,0.000
 00016,0.00000058,-0.00000011,-0.00000049,-0.00000030,-0.00000036,0.000
 00017,0.00000041,-0.00000144,0.00000042,-0.00000182,-0.00000101,-0.000
 00093,-0.00000021,0.00000025,-0.00000023,0.00000077,-0.00000010,0.0000
 0109,0.00000039,-0.00000014,0.00000103,-0.00000012,-0.00000183,0.00000
 014,0.00000067,0.00000077,0.00000013,-0.00000058,0.00000024,-0.0000001
 9,-0.00000034,-0.00000123,-0.00000009,0.00000028,-0.00000171,0.0000008
 6,-0.00000033,-0.00000065,0.00000012,-0.00000044,0.00000035,-0.0000005
 9,0.00000004,0.00000008,-0.00000099,-0.00000019,0.00000250,-0.00000153
 ,-0.00000115,-0.00000120,0.00000089,0.00000036,-0.00000099,0.00000110,
 -0.00000013,0.00000043,0.00000021,0.00000047,0.00000037,0.00000053,-0.
 00000029,0.00000017,0.00000055,0.00000040,-0.00000045,-0.00000014,-0.0
 0000013,-0.00000019,0.00000143,0.00000003,0.00000047,0.00000126,-0.000
 00059,0.00000016,-0.00000064,0.00000041,0.,-0.00000116,-0.00000021,-0.
 00000079,0.00000295,-0.00000077,-0.00000025,-0.00000042,0.00000037,0.0
 0000063,0.00000112,-0.00000134,-0.00000054,-0.00000014,0.00000058,0.00
 000018,-0.00000237,-0.00000132,-0.00000223,0.00000062,0.00000088,0.000
 00097,0.00000034,-0.00000166,-0.00000104,-0.00000107,0.00000099,0.0000
 0006,-0.00000176,-0.00000139,-0.00000077,-0.00000087,0.00000094,0.0000
 0005,-0.00000004,-0.00000209,-0.00000078,0.00000119,0.00000112,0.00000
 114,0.00000436,-0.00000826,0.00001251,-0.00000089,-0.00000315,-0.00000
 213,-0.00000131,0.00000352,-0.00000479,-0.00000009,0.00000388,-0.00000
 249,0.00000163,-0.00000198,0.00000143,-0.00000016,-0.00000079,-0.00000
 098,-0.00000056,0.00000021,0.00000049,-0.00000163,0.00000088,-0.000002
 16,-0.00001283,0.00006098,0.00008669,-0.00059988,-0.00727396,0.0023244
 7,-0.00098144,0.00173889,-0.00028187,0.03182401,0.00107597,-0.00196995
 ,-0.00071736,0.00120768,0.00001316,-0.00055278,0.00118681,-0.00068381,
 -0.00017951,-0.00045093,0.00025547,0.00017377,-0.00003701,-0.00003441,
 0.00000094,0.00000044,-0.00001746,0.00248281,0.00028704,-0.00028346,0.
 00017083,0.00039431,-0.00011970,-0.00000950,-0.00004075,-0.00002942,-0
 .00005291,0.00004119,0.00004380,-0.00002164,-0.00004201,0.00001934,-0.
 01238361,-0.04764944,0.00017174,-0.00781569,-0.00154550,-0.00104344,-0
 .02215602,-0.00002218,0.00363314,0.00039086,-0.00017719,-0.00025102,-0
 .00007670,0.00001709,0.00006179,-0.00004684,0.00004397,0.00010556,-0.0
 0022151,0.00010823,0.00014440,0.00000826,-0.00001073,-0.00000428,-0.00
 000159,0.00000503,0.00000334,-0.00000268,0.00000063,0.00000238,-0.0000
 0338,0.00000503,-0.00000154,0.01076376,0.05107945,-0.00016497,0.000079
 01,-0.00003230,-0.00001838,0.00002526,0.00002262,0.00000717,0.00007728
 ,-0.00009876,0.00006360,-0.00007152,0.00012893,0.00004165,-0.00007391,
 -0.00008359,-0.00001213,-0.00001318,0.00000533,-0.00000291,-0.00000139
 ,0.00000070,0.00000881,0.00000267,0.00000213,-0.00000525,-0.00000952,0
 .00000290,0.00001048,0.00000562,-0.00000228,0.00000919,-0.00000337,-0.
 00000254,0.00005772,0.00003653,-0.00002001,-0.00002332,-0.00001305,0.0
 0003926,0.00000059,0.00000145,-0.00000088,0.00000096,0.00000079,-0.000
 00004,-0.00000298,-0.00000417,0.00000700,-0.00003125,-0.00007937,0.000
 01255,0.00001491,0.00002197,-0.00000718,-0.00002168,-0.00000245,0.0000
 2538,0.00000050,-0.00000391,-0.00000072,0.00000228,-0.00000372,0.00000
 130,-0.00000982,-0.00001516,-0.00000587,0.00000162,0.00000609,-0.00000
 451,-0.00001086,0.00000732,0.00001023,0.00000733,0.00001421,0.00000454
 ,-0.00000534,-0.00000673,-0.00000328,0.00000080,-0.00000477,-0.0000037
 8,0.00000037,0.00000043,0.00000291,-0.00000235,0.00000170,0.00000445,0
 .00000813,0.00001123,-0.00000304,0.00000298,-0.00000076,0.00000459,-0.
 00000085,0.00000029,-0.00000104,0.00000202,-0.00000017,0.00000206,-0.0
 0000040,-0.00000231,0.00000341,0.00000033,0.00000048,-0.00000030,-0.00
 000022,-0.00000030,0.00000037,-0.00000051,0.00000002,0.00000007,0.0000
 0032,-0.00000017,-0.00000007,0.00000070,0.00000023,-0.00000074,-0.0000
 0031,0.00000044,0.00000005,-0.00000040,-0.00000071,0.00000049,0.000000
 28,-0.00000033,-0.00000013,-0.00000048,-0.00000042,-0.00000059,0.00000
 010,0.00000086,0.00000058,0.00000030,-0.00000068,0.00000006,0.00000024
 ,-0.00000008,-0.00000030,-0.00000023,-0.00000020,-0.00000033,0.0000001
 9,0.00000003,-0.00000003,0.00000017,-0.00000035,0.00000012,-0.00000044
 ,0.00000007,-0.00000024,0.00000090,-0.00000013,-0.00000031,0.00000028,
 0.,0.00000017,-0.00000035,-0.00000013,-0.00000003,-0.00000031,0.000000
 09,0.00000019,0.00000031,-0.00000002,0.00000053,0.00000014,-0.00000002
 ,-0.00000006,-0.00000015,0.,0.00000007,-0.00000007,-0.00000011,-0.0000
 0015,-0.00000005,-0.00000033,-0.00000049,-0.00000011,0.00000009,0.0000
 0015,0.00000009,0.00000009,0.00000037,0.00000014,-0.00000033,0.0000000
 3,-0.00000011,0.00000002,-0.00000038,0.00000009,-0.00000035,0.00000051
 ,-0.00000021,-0.00000004,0.00000001,0.00000018,0.00000046,-0.00000024,
 -0.00000121,0.00000039,-0.00000131,0.00000064,0.00000046,0.00000033,0.
 00000016,-0.00000078,-0.00000004,-0.00000099,0.00000045,-0.00000019,-0
 .00000046,0.00000014,-0.00000038,-0.00000112,0.00000044,0.00000002,0.0
 0000010,-0.00000080,0.00000002,0.00000058,-0.00000050,0.00000092,0.000
 00390,-0.00000612,0.00000576,-0.00000099,0.00000027,0.00000093,-0.0000
 0128,0.00000229,-0.00000394,-0.00000041,-0.00000049,-0.00000070,0.0000
 0140,-0.00000263,0.00000126,-0.00000013,-0.00000028,-0.00000059,-0.000
 00047,0.00000037,0.00000062,-0.00000113,0.00000099,-0.00000126,0.00000
 458,-0.00000968,-0.00002189,0.00024993,0.00216827,-0.00007097,0.000359
 86,-0.00037853,0.00068711,-0.00879165,-0.00063280,-0.00057272,-0.00011
 143,-0.00055800,0.00004527,0.00048673,-0.00013764,0.00016112,0.0000740
 9,0.00011116,-0.00008687,-0.00004447,0.00000667,0.00001921,-0.00000689
 ,-0.00000025,0.00000089,-0.00068579,-0.00004441,0.00017108,-0.00006020
 ,-0.00009201,0.00003163,0.00001455,-0.00000181,-0.00000688,0.00001513,
 0.00000962,-0.00000704,0.00000244,0.00000814,-0.00001401,0.01370832,0.
 00013887,-0.04948394,0.02981267,0.00044215,0.00074762,-0.02053458,0.00
 097474,0.00150763,0.00106045,-0.00055018,-0.00027901,-0.00015082,0.000
 11139,-0.00000276,-0.00017046,0.00010342,0.00015297,-0.00060756,0.0004
 3772,0.00019597,-0.00001525,-0.00000340,0.00000002,0.00000384,0.000002
 77,0.00000103,0.00000496,0.00000164,-0.00000284,0.00000406,-0.00000135
 ,0.00000124,-0.01455052,-0.00208131,0.04681488\\-0.00000248,-0.0000017
 4,0.00000061,0.00000540,0.00000814,0.00000016,-0.00000465,0.00000089,-
 0.00000199,-0.00000569,0.00000343,-0.00000124,0.00000598,0.00000355,0.
 00000198,0.00000149,-0.00000266,0.00000210,0.00000088,0.00000099,0.000
 00244,-0.00000299,0.00000208,-0.00000107,0.00000218,-0.00000413,0.0000
 0311,0.00000262,0.00000010,0.00000165,0.00000115,-0.00000725,0.0000002
 6,0.00000290,-0.00000111,0.00000179,0.00000020,-0.00000052,0.00000140,
 -0.00000061,-0.00000293,0.00000173,0.00000149,0.00000164,0.00000095,-0
 .00000012,0.00000148,0.00000048,0.00000091,0.00000032,0.00000156,0.000
 00067,0.00000149,-0.00000212,0.00000201,-0.00000005,0.00000092,0.00000
 219,0.00000369,-0.00000325,-0.00000178,-0.00000071,0.00000132,0.000000
 79,0.00000160,-0.00000194,-0.00000102,0.00000106,-0.00000081,-0.000000
 89,-0.00000481,0.00000161,-0.00000197,-0.00000169,-0.00000123,0.000000
 29,-0.00000072,-0.00000222,0.00000112,0.00000189,-0.00000045,-0.000001
 23,0.00000248,-0.00000100,0.00000215,0.00000005,0.00000578,0.00000278,
 0.00000446,-0.00000103,-0.00000201,0.00000051,0.00000410,0.00000094,-0
 .00000464,0.00000058,-0.00000046,0.00000528,-0.00000024,-0.00000251,0.
 00000047,-0.00000249,-0.00000511,0.00000463,-0.00000403,0.00000071,-0.
 00000353,0.00000040,0.00000348,0.00000232,0.00000096,0.00000060,0.0000
 0083,0.00000011,-0.00000554,0.00000448,0.00000365,0.00000165,-0.000001
 66,-0.00000051,0.00000088,-0.00000364,0.00000010,0.00000287,-0.0000010
 0,-0.00000121,-0.00000372,-0.00000005,0.00000454,0.00000101,0.00000082
 ,-0.00000067,0.00000009,0.00000027,-0.00000114,0.00000116,0.00000147,-
 0.00000309,-0.00000151,-0.00000514,0.00000169,0.00000090,0.00000081,-0
 .00000253,-0.00000008,0.00000267,-0.00000114,-0.00000006,0.00000064,0.
 00000003,-0.00000282,-0.00000718,0.00000411,-0.00000017,-0.00000014,0.
 00000017,0.00000150,0.00000280,-0.00000161,0.00000008,-0.00000102,-0.0
 0000135,0.00000543,-0.00000707,-0.00000112,-0.00000316,0.00000023,-0.0
 0000110,0.00000005,0.00000095,-0.00000116,-0.00000068,0.00000106,0.000
 00116,0.00000479,-0.00000773,0.00000217,-0.00000493,0.00000010,-0.0000
 0103,0.00000033,0.00000098,-0.00000161,-0.00000025,-0.00000124,0.00000
 024,0.00000023,-0.00000731,-0.00000209,0.00000099,0.00000063,-0.000000
 73,-0.00000269,0.,-0.00000146,-0.00000177,-0.00000206,-0.00000140,-0.0
 0000470,-0.00000291,-0.00000151,0.00000019,0.00000256,-0.00000201,0.00
 000002,0.00000122,-0.00000048,0.00000141,-0.00000013,0.00000023,0.0000
 0219,-0.00000338,-0.00000109,-0.00000328,0.00000118,-0.00000238,-0.000
 00107,0.00000149,-0.00000118,-0.00000077,0.00000058,-0.00000165,-0.000
 00665,-0.00000418,-0.00000249,0.00000006,0.00000388,-0.00000156,0.0000
 0093,0.00000091,-0.00000008,0.00000027,0.00000237,0.00000225,0.0000005
 8,-0.00000404,-0.00000647,-0.00000026,0.00000526,-0.00000141,-0.000004
 25,0.00000075,0.00000212,0.00000065,0.00000099,0.00000003,-0.00000105,
 -0.00000136,-0.00000077,-0.00000162,-0.00000106,0.00000093,0.00000237,
 -0.00000145,0.00000037,0.00000261,-0.00000462,0.00000333,0.00000141,0.
 00000110,-0.00000267,0.00000176,0.00000188,0.00000216,-0.00000491,-0.0
 0000554,0.00000254,0.00000031,-0.00000079,-0.00000019,-0.00000098,0.00
 000553,0.00000227,0.00000191,-0.00000135,-0.00000090,0.00000454,0.0000
 0115,-0.00000257,-0.00000011,0.00000108,0.00000093,-0.00000232,-0.0000
 0017,0.00000170,-0.00000120,0.00000035,-0.00000057,0.00000254,0.000003
 59,0.00000423,0.00000179,0.00000293,0.00000126,0.00000051,-0.00000097,
 -0.00000091,0.00000747,-0.00000522,0.00000359,-0.00000248,0.00000569,-
 0.00000320,-0.00000048,0.00000258,0.00000074,-0.00000468,0.00000212,-0
 .00000198,0.00000419,0.00000064,0.00000142,0.00000063,-0.00000163,0.00
 000074,0.00000006,-0.00000140,0.00000259,0.00000130,0.00000036,-0.0000
 0144,-0.00000290,0.00000042,0.00000024\\\@
 The archive entry for this job was punched.


 IF OTHER PEOPLE ARE GOING TO TALK, CONVERSATION IS SIMPLY IMPOSSIBLE.

                                               -- WHISTLER'S PRINCIPLE
 Job cpu time:       2 days  0 hours 51 minutes  5.6 seconds.
 Elapsed time:       0 days  3 hours  6 minutes 37.8 seconds.
 File lengths (MBytes):  RWF=   9700 Int=      0 D2E=      0 Chk=     55 Scr=      1
 Normal termination of Gaussian 16 at Sat Dec  7 21:59:57 2024.
