/mnt/lustre/scratch/nvme/SLURM/9663545/usccqdma.2IDwkS8bcT
OMP_STACKSIZE=0m
GAUSS_PDEF=16
GAUSS_MDEF=65536MB
GAUSS_RDEF=SCF=Direct
 Entering Gaussian System, Link 0=g16.exe
 Initial command:
 /opt/cesga/2020/software/Core/g16/c1/l1.exe "/mnt/lustre/scratch/nvme/SLURM/9663545/usccqdma.2IDwkS8bcT/Gau-299347.inp" -scrdir="/mnt/lustre/scratch/nvme/SLURM/9663545/usccqdma.2IDwkS8bcT/"
 Default is to use a total of  16 processors:
                               16 via shared-memory
                                1 via Linda
 Entering Link 1 = /opt/cesga/2020/software/Core/g16/c1/l1.exe PID=    299374.
  
 Copyright (c) 1988-2019, Gaussian, Inc.  All Rights Reserved.
  
 This is part of the Gaussian(R) 16 program.  It is based on
 the Gaussian(R) 09 system (copyright 2009, Gaussian, Inc.),
 the Gaussian(R) 03 system (copyright 2003, Gaussian, Inc.),
 the Gaussian(R) 98 system (copyright 1998, Gaussian, Inc.),
 the Gaussian(R) 94 system (copyright 1995, Gaussian, Inc.),
 the Gaussian 92(TM) system (copyright 1992, Gaussian, Inc.),
 the Gaussian 90(TM) system (copyright 1990, Gaussian, Inc.),
 the Gaussian 88(TM) system (copyright 1988, Gaussian, Inc.),
 the Gaussian 86(TM) system (copyright 1986, Carnegie Mellon
 University), and the Gaussian 82(TM) system (copyright 1983,
 Carnegie Mellon University). Gaussian is a federally registered
 trademark of Gaussian, Inc.
  
 This software contains proprietary and confidential information,
 including trade secrets, belonging to Gaussian, Inc.
  
 This software is provided under written license and may be
 used, copied, transmitted, or stored only in accord with that
 written license.
  
 The following legend is applicable only to US Government
 contracts under FAR:
  
                    RESTRICTED RIGHTS LEGEND
  
 Use, reproduction and disclosure by the US Government is
 subject to restrictions as set forth in subparagraphs (a)
 and (c) of the Commercial Computer Software - Restricted
 Rights clause in FAR 52.227-19.
  
 Gaussian, Inc.
 340 Quinnipiac St., Bldg. 40, Wallingford CT 06492
  
  
 ---------------------------------------------------------------
 Warning -- This program may not be used in any manner that
 competes with the business of Gaussian, Inc. or will provide
 assistance to any competitor of Gaussian, Inc.  The licensee
 of this program is prohibited from giving any competitor of
 Gaussian, Inc. access to this program.  By using this program,
 the user acknowledges that Gaussian, Inc. is engaged in the
 business of creating and licensing software in the field of
 computational chemistry and represents and warrants to the
 licensee that it is not a competitor of Gaussian, Inc. and that
 it will not use this program in any manner prohibited above.
 ---------------------------------------------------------------
  

 Cite this work as:
 Gaussian 16, Revision C.01,
 M. J. Frisch, G. W. Trucks, H. B. Schlegel, G. E. Scuseria, 
 M. A. Robb, J. R. Cheeseman, G. Scalmani, V. Barone, 
 G. A. Petersson, H. Nakatsuji, X. Li, M. Caricato, A. V. Marenich, 
 J. Bloino, B. G. Janesko, R. Gomperts, B. Mennucci, H. P. Hratchian, 
 J. V. Ortiz, A. F. Izmaylov, J. L. Sonnenberg, D. Williams-Young, 
 F. Ding, F. Lipparini, F. Egidi, J. Goings, B. Peng, A. Petrone, 
 T. Henderson, D. Ranasinghe, V. G. Zakrzewski, J. Gao, N. Rega, 
 G. Zheng, W. Liang, M. Hada, M. Ehara, K. Toyota, R. Fukuda, 
 J. Hasegawa, M. Ishida, T. Nakajima, Y. Honda, O. Kitao, H. Nakai, 
 T. Vreven, K. Throssell, J. A. Montgomery, Jr., J. E. Peralta, 
 F. Ogliaro, M. J. Bearpark, J. J. Heyd, E. N. Brothers, K. N. Kudin, 
 V. N. Staroverov, T. A. Keith, R. Kobayashi, J. Normand, 
 K. Raghavachari, A. P. Rendell, J. C. Burant, S. S. Iyengar, 
 J. Tomasi, M. Cossi, J. M. Millam, M. Klene, C. Adamo, R. Cammi, 
 J. W. Ochterski, R. L. Martin, K. Morokuma, O. Farkas, 
 J. B. Foresman, and D. J. Fox, Gaussian, Inc., Wallingford CT, 2019.
 
 ******************************************
 Gaussian 16:  ES64L-G16RevC.01  3-Jul-2019
                 7-Dec-2024 
 ******************************************
 Default route: SCF=Direct
 ----------------------------------------------------
 # m06/genecp scf=tight int=ultrafine 5d freq=noraman
 ----------------------------------------------------
 1/10=4,30=1,38=1/1,3;
 2/12=2,17=6,18=5,40=1/2;
 3/5=7,8=1,11=2,16=1,17=8,25=1,30=1,71=2,74=-54,75=-5,140=1/1,2,3;
 4//1;
 5/5=2,32=2,38=5,98=1/2;
 8/6=4,10=90,11=11/1;
 11/6=1,8=1,9=11,15=111,16=1/1,2,10;
 10/6=1/2;
 6/7=2,8=2,9=2,10=2,28=1/1;
 7/8=1,10=1,25=1/1,2,3,16;
 1/10=4,30=1/3;
 99//99;
 ------
 OPT-TS
 ------
 Symbolic Z-matrix:
 Charge =  0 Multiplicity = 1
 C                     1.81971  -1.47567   0.60276 
 C                     1.66502   0.84044   0.79156 
 C                     2.82392   0.9015    1.54481 
 C                     3.4777   -0.27939   1.88164 
 C                     2.95985  -1.47134   1.41451 
 C                     1.30121  -2.72144   0.00523 
 C                    -0.37632  -3.71056  -1.22206 
 C                     0.26084  -4.94701  -1.19786 
 C                     1.47771  -5.05017  -0.53858 
 C                     2.00737  -3.92417   0.07427 
 H                     1.09855   1.73745   0.53663 
 H                     4.37757  -0.2591    2.49548 
 H                     3.45233  -2.405     1.67039 
 H                    -1.34034  -3.56817  -1.70842 
 H                     2.01665  -5.99501  -0.50512 
 H                     2.96929  -3.98937   0.57648 
 N                     1.17154  -0.32113   0.32628 
 N                     0.13246  -2.62673  -0.64024 
 Ir                   -0.66032  -0.26651  -0.82911 
 O                    -1.48148  -1.08655   2.03265 
 O                    -3.68514  -0.31947   0.0081 
 O                    -0.01909   2.71256  -0.75915 
 B                    -2.60533  -0.93983  -0.61355 
 B                    -1.34583  -0.0669    1.10025 
 B                    -0.62133   1.67907  -1.51561 
 O                    -1.65616   2.24772  -2.29513 
 O                    -1.39768   1.16977   1.71574 
 C                    -1.82819   0.9845    3.07337 
 C                    -1.44812  -0.50401   3.34629 
 C                    -0.76863   3.91982  -0.93225 
 C                    -2.08649   3.42073  -1.61065 
 C                    -4.85077  -1.12756  -0.22503 
 C                    -4.23267  -2.53171  -0.47746 
 O                    -2.97623  -2.19577  -1.08464 
 C                    -0.02652  -0.67567   3.86517 
 H                     0.07893  -0.33095   4.90244 
 H                     0.23661  -1.74083   3.82457 
 H                     0.69303  -0.12543   3.24341 
 C                    -2.41376  -1.25528   4.24052 
 H                    -2.46023  -0.80012   5.24037 
 H                    -3.42557  -1.27072   3.8185 
 H                    -2.07955  -2.29478   4.35472 
 C                    -1.11177   1.99419   3.94948 
 H                    -1.44966   3.00752   3.69708 
 H                    -1.3315    1.82011   5.0128 
 H                    -0.02488   1.96097   3.80427 
 C                    -3.32726   1.24441   3.09533 
 H                    -3.50958   2.26139   2.72224 
 H                    -3.85246   0.55066   2.42658 
 H                    -3.74629   1.16739   4.10771 
 C                    -5.76453  -1.04432   0.98024 
 H                    -6.13653  -0.0177    1.09438 
 H                    -6.63198  -1.70877   0.85811 
 H                    -5.24304  -1.32116   1.90444 
 C                    -5.5487   -0.55053  -1.44925 
 H                    -5.77565   0.50585  -1.2584 
 H                    -4.90104  -0.5994   -2.33457 
 H                    -6.49021  -1.07094  -1.67051 
 C                    -3.91802  -3.29176   0.8046 
 H                    -3.30172  -4.16436   0.54873 
 H                    -3.33825  -2.6699    1.49996 
 H                    -4.82777  -3.64899   1.30613 
 C                    -5.01804  -3.41154  -1.42837 
 H                    -5.11609  -2.95296  -2.41829 
 H                    -4.50478  -4.3745   -1.55082 
 H                    -6.02361  -3.61402  -1.03255 
 C                    -3.16284   3.01423  -0.60758 
 H                    -2.77564   2.3185    0.14688 
 H                    -3.59966   3.88731  -0.10133 
 H                    -3.96104   2.49309  -1.15309 
 C                    -2.68312   4.38712  -2.61759 
 H                    -1.99584   4.593    -3.44564 
 H                    -3.59714   3.95188  -3.0415 
 H                    -2.95294   5.33929  -2.13772 
 C                     0.04303   4.84769  -1.82597 
 H                    -0.42989   5.83378  -1.92915 
 H                     1.03819   4.99164  -1.38396 
 H                     0.16966   4.42057  -2.83024 
 C                    -0.95545   4.55367   0.43418 
 H                    -1.59672   5.44534   0.37777 
 H                    -1.39448   3.83499   1.13643 
 H                     0.02189   4.86044   0.83189 
 H                    -1.98355  -0.12467  -1.79502 
 C                     2.84188  -0.10456  -2.23179 
 O                     2.4508   -1.26222  -2.3667 
 C                     4.27509   0.19401  -1.81888 
 H                     4.80659   0.70571  -2.6384 
 H                     4.27372   0.91653  -0.98431 
 C                     0.59321   0.73974  -2.62683 
 H                     0.25749   1.3755   -3.4569 
 H                     0.4906   -0.28832  -3.00683 
 N                     2.01253   0.96707  -2.38545 
 C                     2.49879   2.33213  -2.33741 
 H                     2.55027   2.73641  -1.31539 
 H                     3.48752   2.41152  -2.80277 
 H                     1.8125    2.97039  -2.90219 
 C                     5.03628  -1.05673  -1.4124 
 H                     4.39533  -1.66393  -0.75594 
 H                     5.22241  -1.68627  -2.29614 
 C                     6.34502  -0.71964  -0.71414 
 H                     6.94696  -0.0641   -1.36477 
 H                     6.12579  -0.11894   0.18916 
 C                     7.17095  -1.94145  -0.32766 
 H                     7.39292  -2.52731  -1.2342 
 H                     8.14398  -1.61222   0.06627 
 C                     6.49482  -2.83772   0.69995 
 H                     5.55606  -3.26036   0.31413 
 H                     7.13753  -3.67903   0.98743 
 H                     6.25863  -2.27592   1.61671 
 C                     3.40872   2.21368   1.9551 
 F                     4.59293   2.40274   1.34924 
 F                     2.62395   3.24301   1.64126 
 F                     3.6396    2.25341   3.27255 
 H                    -0.18964  -5.80337  -1.69412 
 

 GradGradGradGradGradGradGradGradGradGradGradGradGradGradGradGradGradGrad
 Berny optimization.
 Initialization pass.
 Trust Radius=3.00D-01 FncErr=1.00D-07 GrdErr=1.00D-07 EigMax=2.50D+02 EigMin=1.00D-04
 Number of steps in this run=      2 maximum allowed number of steps=      2.
 GradGradGradGradGradGradGradGradGradGradGradGradGradGradGradGradGradGrad

 Stoichiometry    C37H60B3F3IrN3O7
 Framework group  C1[X(C37H60B3F3IrN3O7)]
 Deg. of freedom   336
 Full point group                 C1      NOp   1
 Largest Abelian subgroup         C1      NOp   1
 Largest concise Abelian subgroup C1      NOp   1
                         Standard orientation:                         
 ---------------------------------------------------------------------
 Center     Atomic      Atomic             Coordinates (Angstroms)
 Number     Number       Type             X           Y           Z
 ---------------------------------------------------------------------
      1          6           0        1.819710   -1.475669    0.602760
      2          6           0        1.665019    0.840441    0.791560
      3          6           0        2.823919    0.901501    1.544810
      4          6           0        3.477699   -0.279388    1.881640
      5          6           0        2.959850   -1.471339    1.414510
      6          6           0        1.301211   -2.721439    0.005230
      7          6           0       -0.376319   -3.710560   -1.222060
      8          6           0        0.260842   -4.947010   -1.197860
      9          6           0        1.477712   -5.050169   -0.538580
     10          6           0        2.007371   -3.924169    0.074270
     11          1           0        1.098548    1.737450    0.536630
     12          1           0        4.377569   -0.259098    2.495480
     13          1           0        3.452331   -2.404998    1.670390
     14          1           0       -1.340339   -3.568171   -1.708420
     15          1           0        2.016652   -5.995009   -0.505120
     16          1           0        2.969291   -3.989369    0.576480
     17          7           0        1.171539   -0.321129    0.326280
     18          7           0        0.132461   -2.626730   -0.640240
     19         77           0       -0.660321   -0.266510   -0.829110
     20          8           0       -1.481480   -1.086551    2.032650
     21          8           0       -3.685141   -0.319472    0.008100
     22          8           0       -0.019092    2.712560   -0.759150
     23          5           0       -2.605330   -0.939831   -0.613550
     24          5           0       -1.345831   -0.066901    1.100250
     25          5           0       -0.621332    1.679070   -1.515610
     26          8           0       -1.656162    2.247719   -2.295130
     27          8           0       -1.397681    1.169769    1.715740
     28          6           0       -1.828191    0.984499    3.073370
     29          6           0       -1.448120   -0.504011    3.346290
     30          6           0       -0.768633    3.919819   -0.932250
     31          6           0       -2.086493    3.420729   -1.610650
     32          6           0       -4.850770   -1.127563   -0.225030
     33          6           0       -4.232669   -2.531712   -0.477460
     34          8           0       -2.976230   -2.195772   -1.084640
     35          6           0       -0.026520   -0.675670    3.865170
     36          1           0        0.078929   -0.330950    4.902440
     37          1           0        0.236610   -1.740830    3.824570
     38          1           0        0.693029   -0.125430    3.243410
     39          6           0       -2.413760   -1.255281    4.240520
     40          1           0       -2.460230   -0.800121    5.240370
     41          1           0       -3.425570   -1.270722    3.818500
     42          1           0       -2.079550   -2.294781    4.354720
     43          6           0       -1.111772    1.994189    3.949480
     44          1           0       -1.449662    3.007519    3.697080
     45          1           0       -1.331502    1.820109    5.012800
     46          1           0       -0.024882    1.960970    3.804270
     47          6           0       -3.327261    1.244408    3.095330
     48          1           0       -3.509582    2.261388    2.722240
     49          1           0       -3.852461    0.550658    2.426580
     50          1           0       -3.746291    1.167388    4.107710
     51          6           0       -5.764530   -1.044323    0.980240
     52          1           0       -6.136531   -0.017703    1.094380
     53          1           0       -6.631980   -1.708774    0.858110
     54          1           0       -5.243040   -1.321163    1.904440
     55          6           0       -5.548700   -0.550533   -1.449250
     56          1           0       -5.775651    0.505847   -1.258400
     57          1           0       -4.901040   -0.599403   -2.334570
     58          1           0       -6.490210   -1.070944   -1.670510
     59          6           0       -3.918019   -3.291762    0.804600
     60          1           0       -3.301719   -4.164362    0.548730
     61          1           0       -3.338249   -2.669902    1.499960
     62          1           0       -4.827769   -3.648993    1.306130
     63          6           0       -5.018039   -3.411543   -1.428370
     64          1           0       -5.116089   -2.952963   -2.418290
     65          1           0       -4.504778   -4.374502   -1.550820
     66          1           0       -6.023609   -3.614023   -1.032550
     67          6           0       -3.162842    3.014228   -0.607580
     68          1           0       -2.775642    2.318498    0.146880
     69          1           0       -3.599663    3.887308   -0.101330
     70          1           0       -3.961042    2.493088   -1.153090
     71          6           0       -2.683123    4.387118   -2.617590
     72          1           0       -1.995843    4.592999   -3.445640
     73          1           0       -3.597143    3.951878   -3.041500
     74          1           0       -2.952944    5.339288   -2.137720
     75          6           0        0.043027    4.847690   -1.825970
     76          1           0       -0.429894    5.833780   -1.929150
     77          1           0        1.038187    4.991640   -1.383960
     78          1           0        0.169657    4.420570   -2.830240
     79          6           0       -0.955453    4.553669    0.434180
     80          1           0       -1.596724    5.445339    0.377770
     81          1           0       -1.394483    3.834989    1.136430
     82          1           0        0.021887    4.860440    0.831890
     83          1           0       -1.983551   -0.124671   -1.795020
     84          6           0        2.841879   -0.104559   -2.231790
     85          8           0        2.450800   -1.262219   -2.366700
     86          6           0        4.275089    0.194012   -1.818880
     87          1           0        4.806589    0.705712   -2.638400
     88          1           0        4.273719    0.916532   -0.984310
     89          6           0        0.593209    0.739740   -2.626830
     90          1           0        0.257489    1.375500   -3.456900
     91          1           0        0.490599   -0.288320   -3.006830
     92          7           0        2.012529    0.967071   -2.385450
     93          6           0        2.498788    2.332131   -2.337410
     94          1           0        2.550268    2.736411   -1.315390
     95          1           0        3.487518    2.411522   -2.802770
     96          1           0        1.812498    2.970391   -2.902190
     97          6           0        5.036280   -1.056727   -1.412400
     98          1           0        4.395330   -1.663928   -0.755940
     99          1           0        5.222410   -1.686267   -2.296140
    100          6           0        6.345020   -0.719637   -0.714140
    101          1           0        6.946959   -0.064096   -1.364770
    102          1           0        6.125789   -0.118937    0.189160
    103          6           0        7.170950   -1.941446   -0.327660
    104          1           0        7.392921   -2.527306   -1.234200
    105          1           0        8.143980   -1.612216    0.066270
    106          6           0        6.494821   -2.837717    0.699950
    107          1           0        5.556061   -3.260357    0.314130
    108          1           0        7.137531   -3.679026    0.987430
    109          1           0        6.258630   -2.275917    1.616710
    110          6           0        3.408718    2.213682    1.955100
    111          9           0        4.592928    2.402742    1.349240
    112          9           0        2.623948    3.243011    1.641260
    113          9           0        3.639598    2.253412    3.272550
    114          1           0       -0.189638   -5.803370   -1.694120
 ---------------------------------------------------------------------
 Rotational constants (GHZ):           0.0682418           0.0471160           0.0407868
 General basis read from cards:  (5D, 7F)
 ======================================================================================================
                                       Pseudopotential Parameters
 ======================================================================================================
  Center     Atomic      Valence      Angular      Power
  Number     Number     Electrons     Momentum     of R      Exponent        Coefficient   SO-Coeffient
 ======================================================================================================
    1          6
                                   No pseudopotential on this center.
    2          6
                                   No pseudopotential on this center.
    3          6
                                   No pseudopotential on this center.
    4          6
                                   No pseudopotential on this center.
    5          6
                                   No pseudopotential on this center.
    6          6
                                   No pseudopotential on this center.
    7          6
                                   No pseudopotential on this center.
    8          6
                                   No pseudopotential on this center.
    9          6
                                   No pseudopotential on this center.
   10          6
                                   No pseudopotential on this center.
   11          1
                                   No pseudopotential on this center.
   12          1
                                   No pseudopotential on this center.
   13          1
                                   No pseudopotential on this center.
   14          1
                                   No pseudopotential on this center.
   15          1
                                   No pseudopotential on this center.
   16          1
                                   No pseudopotential on this center.
   17          7
                                   No pseudopotential on this center.
   18          7
                                   No pseudopotential on this center.
   19         77           17
                                      G and up 
                                                     1      823.5880147       -0.15780140    0.00000000
                                                     2      364.6613336    -1517.52704460    0.00000000
                                                     2       55.7082801     -316.53065290    0.00000000
                                                     2       12.0464544      -91.88809410    0.00000000
                                                     2        3.5120610       -9.22417730    0.00000000
                                      S - G
                                                     0      188.0490770        3.15780140    0.00000000
                                                     1      340.4194712       26.83225770    0.00000000
                                                     2      128.2373673      800.42500070    0.00000000
                                                     2       33.8644961      369.40506830    0.00000000
                                                     2        4.7560005      242.41718990    0.00000000
                                                     2        3.9649974     -118.21732820    0.00000000
                                      P - G
                                                     0      289.7291139        2.15780140    0.00000000
                                                     1       87.4633789       61.96786100    0.00000000
                                                     2       30.4363766      269.05819860    0.00000000
                                                     2        4.0553412      231.16547930    0.00000000
                                                     2        3.5525341     -133.69526670    0.00000000
                                      D - G
                                                     0      136.4017106        3.15780140    0.00000000
                                                     1       95.0776925       45.93498030    0.00000000
                                                     2       49.2258410      359.03446680    0.00000000
                                                     2       15.0874145      176.47401190    0.00000000
                                                     2        4.0405764       54.51552860    0.00000000
                                      F - G
                                                     0      127.3507908        3.95461970    0.00000000
                                                     1       66.2364374       52.97736550    0.00000000
                                                     2       34.4299229      274.86433830    0.00000000
                                                     2       10.1995721      137.20473380    0.00000000
                                                     2        2.5409702       14.86333050    0.00000000
   20          8
                                   No pseudopotential on this center.
   21          8
                                   No pseudopotential on this center.
   22          8
                                   No pseudopotential on this center.
   23          5
                                   No pseudopotential on this center.
   24          5
                                   No pseudopotential on this center.
   25          5
                                   No pseudopotential on this center.
   26          8
                                   No pseudopotential on this center.
   27          8
                                   No pseudopotential on this center.
   28          6
                                   No pseudopotential on this center.
   29          6
                                   No pseudopotential on this center.
   30          6
                                   No pseudopotential on this center.
   31          6
                                   No pseudopotential on this center.
   32          6
                                   No pseudopotential on this center.
   33          6
                                   No pseudopotential on this center.
   34          8
                                   No pseudopotential on this center.
   35          6
                                   No pseudopotential on this center.
   36          1
                                   No pseudopotential on this center.
   37          1
                                   No pseudopotential on this center.
   38          1
                                   No pseudopotential on this center.
   39          6
                                   No pseudopotential on this center.
   40          1
                                   No pseudopotential on this center.
   41          1
                                   No pseudopotential on this center.
   42          1
                                   No pseudopotential on this center.
   43          6
                                   No pseudopotential on this center.
   44          1
                                   No pseudopotential on this center.
   45          1
                                   No pseudopotential on this center.
   46          1
                                   No pseudopotential on this center.
   47          6
                                   No pseudopotential on this center.
   48          1
                                   No pseudopotential on this center.
   49          1
                                   No pseudopotential on this center.
   50          1
                                   No pseudopotential on this center.
   51          6
                                   No pseudopotential on this center.
   52          1
                                   No pseudopotential on this center.
   53          1
                                   No pseudopotential on this center.
   54          1
                                   No pseudopotential on this center.
   55          6
                                   No pseudopotential on this center.
   56          1
                                   No pseudopotential on this center.
   57          1
                                   No pseudopotential on this center.
   58          1
                                   No pseudopotential on this center.
   59          6
                                   No pseudopotential on this center.
   60          1
                                   No pseudopotential on this center.
   61          1
                                   No pseudopotential on this center.
   62          1
                                   No pseudopotential on this center.
   63          6
                                   No pseudopotential on this center.
   64          1
                                   No pseudopotential on this center.
   65          1
                                   No pseudopotential on this center.
   66          1
                                   No pseudopotential on this center.
   67          6
                                   No pseudopotential on this center.
   68          1
                                   No pseudopotential on this center.
   69          1
                                   No pseudopotential on this center.
   70          1
                                   No pseudopotential on this center.
   71          6
                                   No pseudopotential on this center.
   72          1
                                   No pseudopotential on this center.
   73          1
                                   No pseudopotential on this center.
   74          1
                                   No pseudopotential on this center.
   75          6
                                   No pseudopotential on this center.
   76          1
                                   No pseudopotential on this center.
   77          1
                                   No pseudopotential on this center.
   78          1
                                   No pseudopotential on this center.
   79          6
                                   No pseudopotential on this center.
   80          1
                                   No pseudopotential on this center.
   81          1
                                   No pseudopotential on this center.
   82          1
                                   No pseudopotential on this center.
   83          1
                                   No pseudopotential on this center.
   84          6
                                   No pseudopotential on this center.
   85          8
                                   No pseudopotential on this center.
   86          6
                                   No pseudopotential on this center.
   87          1
                                   No pseudopotential on this center.
   88          1
                                   No pseudopotential on this center.
   89          6
                                   No pseudopotential on this center.
   90          1
                                   No pseudopotential on this center.
   91          1
                                   No pseudopotential on this center.
   92          7
                                   No pseudopotential on this center.
   93          6
                                   No pseudopotential on this center.
   94          1
                                   No pseudopotential on this center.
   95          1
                                   No pseudopotential on this center.
   96          1
                                   No pseudopotential on this center.
   97          6
                                   No pseudopotential on this center.
   98          1
                                   No pseudopotential on this center.
   99          1
                                   No pseudopotential on this center.
  100          6
                                   No pseudopotential on this center.
  101          1
                                   No pseudopotential on this center.
  102          1
                                   No pseudopotential on this center.
  103          6
                                   No pseudopotential on this center.
  104          1
                                   No pseudopotential on this center.
  105          1
                                   No pseudopotential on this center.
  106          6
                                   No pseudopotential on this center.
  107          1
                                   No pseudopotential on this center.
  108          1
                                   No pseudopotential on this center.
  109          1
                                   No pseudopotential on this center.
  110          6
                                   No pseudopotential on this center.
  111          9
                                   No pseudopotential on this center.
  112          9
                                   No pseudopotential on this center.
  113          9
                                   No pseudopotential on this center.
  114          1
                                   No pseudopotential on this center.
 ======================================================================================================
 There are   939 symmetry adapted cartesian basis functions of A   symmetry.
 There are   884 symmetry adapted basis functions of A   symmetry.
   884 basis functions,  1767 primitive gaussians,   939 cartesian basis functions
   209 alpha electrons      209 beta electrons
       nuclear repulsion energy      9507.5826139927 Hartrees.
 NAtoms=  114 NActive=  114 NUniq=  114 SFac= 1.00D+00 NAtFMM=   60 NAOKFM=T Big=T
 Integral buffers will be    131072 words long.
 Raffenetti 2 integral format.
 Two-electron integral symmetry is turned on.
 One-electron integrals computed using PRISM.
   1 Symmetry operations used in ECPInt.
 ECPInt:  NShTT=   57970 NPrTT=  353525 LenC2=   43994 LenP2D=  135112.
 LDataN:  DoStor=T MaxTD1= 6 Len=  172
 NBasis=   884 RedAO= T EigKep=  4.77D-04  NBF=   884
 NBsUse=   884 1.00D-06 EigRej= -1.00D+00 NBFU=   884
 Defaulting to unpruned grid for atomic number  77.
 ExpMin= 2.90D-02 ExpMax= 7.00D+03 ExpMxC= 1.05D+03 IAcc=3 IRadAn=         5 AccDes= 0.00D+00
 Harris functional with IExCor= 1009 and IRadAn=       5 diagonalized for initial guess.
 HarFok:  IExCor= 1009 AccDes= 0.00D+00 IRadAn=         5 IDoV= 1 UseB2=F ITyADJ=14
 ICtDFT=  3500011 ScaDFX=  1.000000  1.000000  1.000000  1.000000
 Defaulting to unpruned grid for atomic number  77.
 FoFCou: FMM=F IPFlag=           0 FMFlag=      100000 FMFlg1=        2001
         NFxFlg=           0 DoJE=T BraDBF=F KetDBF=T FulRan=T
         wScrn=  0.000000 ICntrl=       500 IOpCl=  0 I1Cent=   200000004 NGrid=           0
         NMat0=    1 NMatS0=      1 NMatT0=    0 NMatD0=    1 NMtDS0=    0 NMtDT0=    0
 Petite list used in FoFCou.
 Requested convergence on RMS density matrix=1.00D-08 within 128 cycles.
 Requested convergence on MAX density matrix=1.00D-06.
 Requested convergence on             energy=1.00D-06.
 No special actions if energy rises.
 Defaulting to unpruned grid for atomic number  77.
 Defaulting to unpruned grid for atomic number  77.
 Defaulting to unpruned grid for atomic number  77.
 Defaulting to unpruned grid for atomic number  77.
 Defaulting to unpruned grid for atomic number  77.
 Defaulting to unpruned grid for atomic number  77.
 Defaulting to unpruned grid for atomic number  77.
 Defaulting to unpruned grid for atomic number  77.
 Defaulting to unpruned grid for atomic number  77.
 Defaulting to unpruned grid for atomic number  77.
 Defaulting to unpruned grid for atomic number  77.
 Defaulting to unpruned grid for atomic number  77.
 Defaulting to unpruned grid for atomic number  77.
 Defaulting to unpruned grid for atomic number  77.
 Defaulting to unpruned grid for atomic number  77.
 Defaulting to unpruned grid for atomic number  77.
 SCF Done:  E(RM06) =  -2614.43311576     A.U. after   16 cycles
            NFock= 16  Conv=0.78D-08     -V/T= 2.0344
 DoSCS=F DFT=T ScalE2(SS,OS)=  1.000000  1.000000
 Range of M.O.s used for correlation:     1   884
 NBasis=   884 NAE=   209 NBE=   209 NFC=     0 NFV=     0
 NROrb=    884 NOA=   209 NOB=   209 NVA=   675 NVB=   675

 **** Warning!!: The smallest alpha delta epsilon is  0.98942957D-01

   1 Symmetry operations used in ECPInt.
 ECPInt:  NShTT=   57970 NPrTT=  353525 LenC2=   43994 LenP2D=  135112.
 LDataN:  DoStor=T MaxTD1= 7 Len=  274
 Number of processors reduced to   7 by ecpmxn.
 Symmetrizing basis deriv contribution to polar:
 IMax=3 JMax=2 DiffMx= 0.00D+00
 G2DrvN: will do   115 centers at a time, making    1 passes.
 Calling FoFCou, ICntrl=  3107 FMM=T I1Cent=   0 AccDes= 0.00D+00.
 Defaulting to unpruned grid for atomic number  77.
 Defaulting to unpruned grid for atomic number  77.
 Defaulting to unpruned grid for atomic number  77.
 Defaulting to unpruned grid for atomic number  77.
 Defaulting to unpruned grid for atomic number  77.
 Defaulting to unpruned grid for atomic number  77.
 Defaulting to unpruned grid for atomic number  77.
 Defaulting to unpruned grid for atomic number  77.
 Defaulting to unpruned grid for atomic number  77.
 Defaulting to unpruned grid for atomic number  77.
 Defaulting to unpruned grid for atomic number  77.
 Defaulting to unpruned grid for atomic number  77.
 Defaulting to unpruned grid for atomic number  77.
 Defaulting to unpruned grid for atomic number  77.
 Defaulting to unpruned grid for atomic number  77.
 Defaulting to unpruned grid for atomic number  77.
 End of G2Drv F.D. properties file   721 does not exist.
 End of G2Drv F.D. properties file   722 does not exist.
 End of G2Drv F.D. properties file   788 does not exist.
          IDoAtm=11111111111111111111111111111111111111111111111111
          IDoAtm=11111111111111111111111111111111111111111111111111
          IDoAtm=11111111111111
          Differentiating once with respect to electric field.
                with respect to dipole field.
          Differentiating once with respect to nuclear coordinates.
 Defaulting to unpruned grid for atomic number  77.
 CalDSu exits because no D1Ps are significant.
 Defaulting to unpruned grid for atomic number  77.
 Defaulting to unpruned grid for atomic number  77.
 Defaulting to unpruned grid for atomic number  77.
 Defaulting to unpruned grid for atomic number  77.
 Defaulting to unpruned grid for atomic number  77.
 Defaulting to unpruned grid for atomic number  77.
 Defaulting to unpruned grid for atomic number  77.
 Defaulting to unpruned grid for atomic number  77.
 Defaulting to unpruned grid for atomic number  77.
 Defaulting to unpruned grid for atomic number  77.
 Defaulting to unpruned grid for atomic number  77.
 Defaulting to unpruned grid for atomic number  77.
 Defaulting to unpruned grid for atomic number  77.
 Defaulting to unpruned grid for atomic number  77.
 Defaulting to unpruned grid for atomic number  77.
 Defaulting to unpruned grid for atomic number  77.
          There are   345 degrees of freedom in the 1st order CPHF.  IDoFFX=6 NUNeed=     3.
    342 vectors produced by pass  0 Test12= 1.41D-13 1.00D-09 XBig12= 5.32D+02 6.99D+00.
 AX will form    72 AO Fock derivatives at one time.
    342 vectors produced by pass  1 Test12= 1.41D-13 1.00D-09 XBig12= 1.04D+02 1.04D+00.
    342 vectors produced by pass  2 Test12= 1.41D-13 1.00D-09 XBig12= 1.05D+00 7.95D-02.
    342 vectors produced by pass  3 Test12= 1.41D-13 1.00D-09 XBig12= 6.64D-03 5.63D-03.
    342 vectors produced by pass  4 Test12= 1.41D-13 1.00D-09 XBig12= 2.23D-05 2.44D-04.
    297 vectors produced by pass  5 Test12= 1.41D-13 1.00D-09 XBig12= 4.19D-08 1.23D-05.
     75 vectors produced by pass  6 Test12= 1.41D-13 1.00D-09 XBig12= 5.85D-11 4.55D-07.
      3 vectors produced by pass  7 Test12= 1.41D-13 1.00D-09 XBig12= 7.68D-14 1.72D-08.
 InvSVY:  IOpt=1 It=  1 EMax= 1.78D-14
 Solved reduced A of dimension  2085 with   345 vectors.
 Isotropic polarizability for W=    0.000000      505.31 Bohr**3.
 End of Minotr F.D. properties file   721 does not exist.
 End of Minotr F.D. properties file   722 does not exist.
 End of Minotr F.D. properties file   788 does not exist.
 Hyperfine terms turned off by default for NAtoms > 100.

 **********************************************************************

            Population analysis using the SCF Density.

 **********************************************************************

 Orbital symmetries:
       Occupied  (A) (A) (A) (A) (A) (A) (A) (A) (A) (A) (A) (A)
                 (A) (A) (A) (A) (A) (A) (A) (A) (A) (A) (A) (A)
                 (A) (A) (A) (A) (A) (A) (A) (A) (A) (A) (A) (A)
                 (A) (A) (A) (A) (A) (A) (A) (A) (A) (A) (A) (A)
                 (A) (A) (A) (A) (A) (A) (A) (A) (A) (A) (A) (A)
                 (A) (A) (A) (A) (A) (A) (A) (A) (A) (A) (A) (A)
                 (A) (A) (A) (A) (A) (A) (A) (A) (A) (A) (A) (A)
                 (A) (A) (A) (A) (A) (A) (A) (A) (A) (A) (A) (A)
                 (A) (A) (A) (A) (A) (A) (A) (A) (A) (A) (A) (A)
                 (A) (A) (A) (A) (A) (A) (A) (A) (A) (A) (A) (A)
                 (A) (A) (A) (A) (A) (A) (A) (A) (A) (A) (A) (A)
                 (A) (A) (A) (A) (A) (A) (A) (A) (A) (A) (A) (A)
                 (A) (A) (A) (A) (A) (A) (A) (A) (A) (A) (A) (A)
                 (A) (A) (A) (A) (A) (A) (A) (A) (A) (A) (A) (A)
                 (A) (A) (A) (A) (A) (A) (A) (A) (A) (A) (A) (A)
                 (A) (A) (A) (A) (A) (A) (A) (A) (A) (A) (A) (A)
                 (A) (A) (A) (A) (A) (A) (A) (A) (A) (A) (A) (A)
                 (A) (A) (A) (A) (A)
       Virtual   (A) (A) (A) (A) (A) (A) (A) (A) (A) (A) (A) (A)
                 (A) (A) (A) (A) (A) (A) (A) (A) (A) (A) (A) (A)
                 (A) (A) (A) (A) (A) (A) (A) (A) (A) (A) (A) (A)
                 (A) (A) (A) (A) (A) (A) (A) (A) (A) (A) (A) (A)
                 (A) (A) (A) (A) (A) (A) (A) (A) (A) (A) (A) (A)
                 (A) (A) (A) (A) (A) (A) (A) (A) (A) (A) (A) (A)
                 (A) (A) (A) (A) (A) (A) (A) (A) (A) (A) (A) (A)
                 (A) (A) (A) (A) (A) (A) (A) (A) (A) (A) (A) (A)
                 (A) (A) (A) (A) (A) (A) (A) (A) (A) (A) (A) (A)
                 (A) (A) (A) (A) (A) (A) (A) (A) (A) (A) (A) (A)
                 (A) (A) (A) (A) (A) (A) (A) (A) (A) (A) (A) (A)
                 (A) (A) (A) (A) (A) (A) (A) (A) (A) (A) (A) (A)
                 (A) (A) (A) (A) (A) (A) (A) (A) (A) (A) (A) (A)
                 (A) (A) (A) (A) (A) (A) (A) (A) (A) (A) (A) (A)
                 (A) (A) (A) (A) (A) (A) (A) (A) (A) (A) (A) (A)
                 (A) (A) (A) (A) (A) (A) (A) (A) (A) (A) (A) (A)
                 (A) (A) (A) (A) (A) (A) (A) (A) (A) (A) (A) (A)
                 (A) (A) (A) (A) (A) (A) (A) (A) (A) (A) (A) (A)
                 (A) (A) (A) (A) (A) (A) (A) (A) (A) (A) (A) (A)
                 (A) (A) (A) (A) (A) (A) (A) (A) (A) (A) (A) (A)
                 (A) (A) (A) (A) (A) (A) (A) (A) (A) (A) (A) (A)
                 (A) (A) (A) (A) (A) (A) (A) (A) (A) (A) (A) (A)
                 (A) (A) (A) (A) (A) (A) (A) (A) (A) (A) (A) (A)
                 (A) (A) (A) (A) (A) (A) (A) (A) (A) (A) (A) (A)
                 (A) (A) (A) (A) (A) (A) (A) (A) (A) (A) (A) (A)
                 (A) (A) (A) (A) (A) (A) (A) (A) (A) (A) (A) (A)
                 (A) (A) (A) (A) (A) (A) (A) (A) (A) (A) (A) (A)
                 (A) (A) (A) (A) (A) (A) (A) (A) (A) (A) (A) (A)
                 (A) (A) (A) (A) (A) (A) (A) (A) (A) (A) (A) (A)
                 (A) (A) (A) (A) (A) (A) (A) (A) (A) (A) (A) (A)
                 (A) (A) (A) (A) (A) (A) (A) (A) (A) (A) (A) (A)
                 (A) (A) (A) (A) (A) (A) (A) (A) (A) (A) (A) (A)
                 (A) (A) (A) (A) (A) (A) (A) (A) (A) (A) (A) (A)
                 (A) (A) (A) (A) (A) (A) (A) (A) (A) (A) (A) (A)
                 (A) (A) (A) (A) (A) (A) (A) (A) (A) (A) (A) (A)
                 (A) (A) (A) (A) (A) (A) (A) (A) (A) (A) (A) (A)
                 (A) (A) (A) (A) (A) (A) (A) (A) (A) (A) (A) (A)
                 (A) (A) (A) (A) (A) (A) (A) (A) (A) (A) (A) (A)
                 (A) (A) (A) (A) (A) (A) (A) (A) (A) (A) (A) (A)
                 (A) (A) (A) (A) (A) (A) (A) (A) (A) (A) (A) (A)
                 (A) (A) (A) (A) (A) (A) (A) (A) (A) (A) (A) (A)
                 (A) (A) (A) (A) (A) (A) (A) (A) (A) (A) (A) (A)
                 (A) (A) (A) (A) (A) (A) (A) (A) (A) (A) (A) (A)
                 (A) (A) (A) (A) (A) (A) (A) (A) (A) (A) (A) (A)
                 (A) (A) (A) (A) (A) (A) (A) (A) (A) (A) (A) (A)
                 (A) (A) (A) (A) (A) (A) (A) (A) (A) (A) (A) (A)
                 (A) (A) (A) (A) (A) (A) (A) (A) (A) (A) (A) (A)
                 (A) (A) (A) (A) (A) (A) (A) (A) (A) (A) (A) (A)
                 (A) (A) (A) (A) (A) (A) (A) (A) (A) (A) (A) (A)
                 (A) (A) (A) (A) (A) (A) (A) (A) (A) (A) (A) (A)
                 (A) (A) (A) (A) (A) (A) (A) (A) (A) (A) (A) (A)
                 (A) (A) (A) (A) (A) (A) (A) (A) (A) (A) (A) (A)
                 (A) (A) (A) (A) (A) (A) (A) (A) (A) (A) (A) (A)
                 (A) (A) (A) (A) (A) (A) (A) (A) (A) (A) (A) (A)
                 (A) (A) (A) (A) (A) (A) (A) (A) (A) (A) (A) (A)
                 (A) (A) (A) (A) (A) (A) (A) (A) (A) (A) (A) (A)
                 (A) (A) (A)
 The electronic state is 1-A.
 Alpha  occ. eigenvalues --  -24.83422 -24.83015 -24.82909 -19.21146 -19.20965
 Alpha  occ. eigenvalues --  -19.20953 -19.20878 -19.18886 -19.17747 -19.17506
 Alpha  occ. eigenvalues --  -14.46786 -14.42396 -14.41618 -10.51592 -10.33225
 Alpha  occ. eigenvalues --  -10.32993 -10.31155 -10.31054 -10.30262 -10.30114
 Alpha  occ. eigenvalues --  -10.29879 -10.29843 -10.29834 -10.29468 -10.29002
 Alpha  occ. eigenvalues --  -10.28980 -10.28340 -10.28066 -10.27822 -10.27580
 Alpha  occ. eigenvalues --  -10.26954 -10.26445 -10.24673 -10.24502 -10.24386
 Alpha  occ. eigenvalues --  -10.24192 -10.24058 -10.23561 -10.23468 -10.23363
 Alpha  occ. eigenvalues --  -10.23307 -10.23225 -10.23193 -10.22618 -10.22338
 Alpha  occ. eigenvalues --  -10.22331 -10.21947 -10.21513 -10.21489 -10.19998
 Alpha  occ. eigenvalues --   -6.82469  -6.81442  -6.79845  -3.63123  -2.06609
 Alpha  occ. eigenvalues --   -2.05679  -2.03174  -1.35937  -1.27476  -1.26935
 Alpha  occ. eigenvalues --   -1.07128  -1.06834  -1.04435  -1.03357  -1.00429
 Alpha  occ. eigenvalues --   -1.00113  -1.00072  -0.97662  -0.96954  -0.92913
 Alpha  occ. eigenvalues --   -0.86688  -0.83524  -0.82889  -0.81841  -0.81093
 Alpha  occ. eigenvalues --   -0.80883  -0.79054  -0.78570  -0.77269  -0.75436
 Alpha  occ. eigenvalues --   -0.75316  -0.73798  -0.73449  -0.71576  -0.71045
 Alpha  occ. eigenvalues --   -0.70700  -0.70478  -0.69162  -0.68767  -0.68555
 Alpha  occ. eigenvalues --   -0.68151  -0.67952  -0.67048  -0.66158  -0.64732
 Alpha  occ. eigenvalues --   -0.63895  -0.62573  -0.62237  -0.61972  -0.61860
 Alpha  occ. eigenvalues --   -0.61730  -0.60953  -0.59955  -0.57505  -0.56552
 Alpha  occ. eigenvalues --   -0.55634  -0.55364  -0.54819  -0.53961  -0.53869
 Alpha  occ. eigenvalues --   -0.53641  -0.52950  -0.52176  -0.51784  -0.49818
 Alpha  occ. eigenvalues --   -0.49709  -0.49574  -0.49363  -0.49218  -0.48652
 Alpha  occ. eigenvalues --   -0.48618  -0.47753  -0.47606  -0.47173  -0.46900
 Alpha  occ. eigenvalues --   -0.46820  -0.46775  -0.46427  -0.45879  -0.45721
 Alpha  occ. eigenvalues --   -0.45516  -0.45137  -0.45009  -0.44896  -0.44798
 Alpha  occ. eigenvalues --   -0.44682  -0.44316  -0.44031  -0.43922  -0.43872
 Alpha  occ. eigenvalues --   -0.43283  -0.43175  -0.42898  -0.42855  -0.42077
 Alpha  occ. eigenvalues --   -0.41912  -0.40918  -0.40751  -0.40649  -0.40487
 Alpha  occ. eigenvalues --   -0.40319  -0.40148  -0.40017  -0.39900  -0.39783
 Alpha  occ. eigenvalues --   -0.39737  -0.39547  -0.39412  -0.39224  -0.38819
 Alpha  occ. eigenvalues --   -0.38695  -0.38551  -0.38272  -0.38146  -0.38110
 Alpha  occ. eigenvalues --   -0.37990  -0.37737  -0.37219  -0.37054  -0.36982
 Alpha  occ. eigenvalues --   -0.36850  -0.36450  -0.36295  -0.36135  -0.35507
 Alpha  occ. eigenvalues --   -0.35436  -0.35204  -0.35135  -0.34965  -0.34792
 Alpha  occ. eigenvalues --   -0.34549  -0.34121  -0.33493  -0.33431  -0.33240
 Alpha  occ. eigenvalues --   -0.33121  -0.32897  -0.32625  -0.32428  -0.32144
 Alpha  occ. eigenvalues --   -0.31889  -0.31446  -0.31042  -0.30787  -0.30472
 Alpha  occ. eigenvalues --   -0.30306  -0.30059  -0.29112  -0.28551  -0.27379
 Alpha  occ. eigenvalues --   -0.27176  -0.26618  -0.26273  -0.25148  -0.24799
 Alpha  occ. eigenvalues --   -0.24098  -0.22267  -0.19912  -0.17644
 Alpha virt. eigenvalues --   -0.07749  -0.04538  -0.02256   0.01097   0.01356
 Alpha virt. eigenvalues --    0.03908   0.05309   0.05346   0.05727   0.06531
 Alpha virt. eigenvalues --    0.07224   0.07460   0.08722   0.09309   0.09451
 Alpha virt. eigenvalues --    0.10262   0.10318   0.10514   0.11249   0.11554
 Alpha virt. eigenvalues --    0.11722   0.11948   0.12225   0.12377   0.12607
 Alpha virt. eigenvalues --    0.12950   0.13200   0.13519   0.13967   0.14412
 Alpha virt. eigenvalues --    0.14511   0.14901   0.15133   0.15241   0.15387
 Alpha virt. eigenvalues --    0.15533   0.15770   0.15944   0.16097   0.16220
 Alpha virt. eigenvalues --    0.16475   0.16586   0.16811   0.16992   0.17027
 Alpha virt. eigenvalues --    0.17182   0.17332   0.17422   0.17639   0.18034
 Alpha virt. eigenvalues --    0.18305   0.18455   0.18501   0.18818   0.18957
 Alpha virt. eigenvalues --    0.19163   0.19352   0.19553   0.19609   0.19739
 Alpha virt. eigenvalues --    0.19986   0.20214   0.20284   0.20577   0.20837
 Alpha virt. eigenvalues --    0.20930   0.21359   0.21607   0.21637   0.21782
 Alpha virt. eigenvalues --    0.22269   0.22371   0.22518   0.22674   0.22792
 Alpha virt. eigenvalues --    0.23101   0.23227   0.23464   0.23664   0.23874
 Alpha virt. eigenvalues --    0.24187   0.24232   0.24296   0.24390   0.24683
 Alpha virt. eigenvalues --    0.25036   0.25243   0.25543   0.25910   0.25955
 Alpha virt. eigenvalues --    0.26035   0.26443   0.26547   0.27008   0.27398
 Alpha virt. eigenvalues --    0.27613   0.27857   0.28094   0.28289   0.28344
 Alpha virt. eigenvalues --    0.28801   0.28991   0.29841   0.30034   0.30284
 Alpha virt. eigenvalues --    0.30702   0.30984   0.31512   0.32381   0.32603
 Alpha virt. eigenvalues --    0.33663   0.33822   0.34062   0.34771   0.35450
 Alpha virt. eigenvalues --    0.36049   0.36322   0.37139   0.37635   0.38331
 Alpha virt. eigenvalues --    0.39158   0.39554   0.39665   0.40127   0.41716
 Alpha virt. eigenvalues --    0.42470   0.43640   0.44033   0.45498   0.46975
 Alpha virt. eigenvalues --    0.47206   0.47754   0.48335   0.48460   0.49252
 Alpha virt. eigenvalues --    0.49455   0.50074   0.50590   0.51145   0.51400
 Alpha virt. eigenvalues --    0.51468   0.51588   0.52144   0.52328   0.52710
 Alpha virt. eigenvalues --    0.52793   0.53408   0.54004   0.54156   0.54810
 Alpha virt. eigenvalues --    0.55027   0.55356   0.55663   0.55885   0.56347
 Alpha virt. eigenvalues --    0.56626   0.57251   0.57390   0.57630   0.57903
 Alpha virt. eigenvalues --    0.58101   0.58170   0.58780   0.58954   0.59314
 Alpha virt. eigenvalues --    0.59404   0.59652   0.59943   0.60161   0.60568
 Alpha virt. eigenvalues --    0.60827   0.61422   0.61611   0.61729   0.61958
 Alpha virt. eigenvalues --    0.62216   0.62629   0.62724   0.63228   0.63601
 Alpha virt. eigenvalues --    0.64285   0.64369   0.64480   0.65019   0.65356
 Alpha virt. eigenvalues --    0.65512   0.66047   0.66232   0.66523   0.66683
 Alpha virt. eigenvalues --    0.67058   0.67160   0.67697   0.68014   0.68148
 Alpha virt. eigenvalues --    0.68615   0.69075   0.69244   0.69622   0.69781
 Alpha virt. eigenvalues --    0.70821   0.70835   0.71027   0.71306   0.71620
 Alpha virt. eigenvalues --    0.71803   0.72456   0.72649   0.72859   0.73175
 Alpha virt. eigenvalues --    0.73608   0.73991   0.74118   0.74274   0.74577
 Alpha virt. eigenvalues --    0.74946   0.75098   0.75985   0.76124   0.77552
 Alpha virt. eigenvalues --    0.77792   0.77959   0.78265   0.78643   0.78710
 Alpha virt. eigenvalues --    0.78913   0.79478   0.79791   0.80503   0.80761
 Alpha virt. eigenvalues --    0.81004   0.81489   0.81661   0.81854   0.82078
 Alpha virt. eigenvalues --    0.82617   0.82793   0.82934   0.83433   0.83724
 Alpha virt. eigenvalues --    0.83875   0.84233   0.84513   0.84721   0.84818
 Alpha virt. eigenvalues --    0.85025   0.85221   0.85358   0.85532   0.85594
 Alpha virt. eigenvalues --    0.86185   0.86418   0.86661   0.86973   0.87140
 Alpha virt. eigenvalues --    0.87246   0.88048   0.88357   0.88525   0.88942
 Alpha virt. eigenvalues --    0.89167   0.89327   0.89535   0.89837   0.89913
 Alpha virt. eigenvalues --    0.90124   0.90334   0.90478   0.90694   0.90992
 Alpha virt. eigenvalues --    0.91493   0.91597   0.91967   0.92208   0.92339
 Alpha virt. eigenvalues --    0.92555   0.92794   0.93409   0.93494   0.93852
 Alpha virt. eigenvalues --    0.94040   0.94669   0.94963   0.95188   0.95277
 Alpha virt. eigenvalues --    0.95777   0.95882   0.96299   0.96400   0.96537
 Alpha virt. eigenvalues --    0.97147   0.97427   0.97646   0.98080   0.98467
 Alpha virt. eigenvalues --    0.99019   0.99152   0.99202   0.99916   1.00108
 Alpha virt. eigenvalues --    1.00805   1.01319   1.02062   1.02428   1.02617
 Alpha virt. eigenvalues --    1.03002   1.03528   1.03842   1.04394   1.05034
 Alpha virt. eigenvalues --    1.05424   1.06339   1.06569   1.06946   1.07429
 Alpha virt. eigenvalues --    1.08206   1.08615   1.09101   1.09592   1.10514
 Alpha virt. eigenvalues --    1.11139   1.11249   1.12628   1.12738   1.13153
 Alpha virt. eigenvalues --    1.13917   1.14347   1.14972   1.15647   1.15905
 Alpha virt. eigenvalues --    1.16332   1.17266   1.17386   1.18043   1.18821
 Alpha virt. eigenvalues --    1.19246   1.19936   1.20353   1.21026   1.21273
 Alpha virt. eigenvalues --    1.21623   1.22273   1.22322   1.22460   1.23123
 Alpha virt. eigenvalues --    1.24062   1.24430   1.24634   1.25184   1.25953
 Alpha virt. eigenvalues --    1.26745   1.27890   1.27986   1.28546   1.28853
 Alpha virt. eigenvalues --    1.29479   1.29855   1.30320   1.31114   1.32069
 Alpha virt. eigenvalues --    1.32380   1.32842   1.33509   1.34070   1.34427
 Alpha virt. eigenvalues --    1.34545   1.35009   1.35564   1.36050   1.36761
 Alpha virt. eigenvalues --    1.37081   1.37791   1.38524   1.39209   1.39601
 Alpha virt. eigenvalues --    1.39926   1.40244   1.40289   1.41077   1.41962
 Alpha virt. eigenvalues --    1.42228   1.43083   1.43141   1.44161   1.44918
 Alpha virt. eigenvalues --    1.45441   1.45770   1.46152   1.46390   1.46519
 Alpha virt. eigenvalues --    1.47142   1.47235   1.47865   1.47978   1.48414
 Alpha virt. eigenvalues --    1.50449   1.50947   1.51473   1.52563   1.52724
 Alpha virt. eigenvalues --    1.53095   1.53871   1.54948   1.55990   1.57292
 Alpha virt. eigenvalues --    1.57473   1.58071   1.58944   1.59429   1.60544
 Alpha virt. eigenvalues --    1.61142   1.61480   1.62340   1.63319   1.64011
 Alpha virt. eigenvalues --    1.64715   1.65170   1.65199   1.65759   1.66711
 Alpha virt. eigenvalues --    1.67138   1.67491   1.67862   1.68461   1.68549
 Alpha virt. eigenvalues --    1.69057   1.69227   1.70596   1.70987   1.71363
 Alpha virt. eigenvalues --    1.71596   1.72863   1.73436   1.73694   1.74403
 Alpha virt. eigenvalues --    1.75386   1.75996   1.76327   1.77263   1.77543
 Alpha virt. eigenvalues --    1.77932   1.78603   1.78778   1.79454   1.79602
 Alpha virt. eigenvalues --    1.80158   1.80655   1.80934   1.81453   1.81548
 Alpha virt. eigenvalues --    1.82203   1.82989   1.83367   1.83589   1.84504
 Alpha virt. eigenvalues --    1.84657   1.85205   1.85408   1.85859   1.86383
 Alpha virt. eigenvalues --    1.86704   1.87033   1.87202   1.87595   1.88169
 Alpha virt. eigenvalues --    1.88886   1.89227   1.89702   1.90155   1.90337
 Alpha virt. eigenvalues --    1.90964   1.91280   1.91394   1.91763   1.91847
 Alpha virt. eigenvalues --    1.92203   1.92479   1.92730   1.92917   1.93026
 Alpha virt. eigenvalues --    1.93638   1.93820   1.94077   1.94445   1.94862
 Alpha virt. eigenvalues --    1.95266   1.95473   1.96052   1.96810   1.96849
 Alpha virt. eigenvalues --    1.97170   1.97770   1.98161   1.99455   1.99530
 Alpha virt. eigenvalues --    1.99570   2.00403   2.01112   2.01644   2.02042
 Alpha virt. eigenvalues --    2.02454   2.03108   2.03408   2.03741   2.04197
 Alpha virt. eigenvalues --    2.04373   2.04770   2.04971   2.05308   2.05843
 Alpha virt. eigenvalues --    2.06280   2.06585   2.06828   2.07530   2.08336
 Alpha virt. eigenvalues --    2.08491   2.08699   2.09011   2.09527   2.09707
 Alpha virt. eigenvalues --    2.10526   2.10667   2.10791   2.11067   2.11292
 Alpha virt. eigenvalues --    2.12210   2.12873   2.13268   2.13607   2.14117
 Alpha virt. eigenvalues --    2.14383   2.14853   2.15077   2.15388   2.15580
 Alpha virt. eigenvalues --    2.15881   2.16304   2.16819   2.17201   2.18025
 Alpha virt. eigenvalues --    2.18251   2.18739   2.18825   2.19026   2.19320
 Alpha virt. eigenvalues --    2.19897   2.20052   2.20406   2.20468   2.21696
 Alpha virt. eigenvalues --    2.21921   2.22352   2.22400   2.22929   2.23299
 Alpha virt. eigenvalues --    2.23656   2.24130   2.24367   2.24881   2.25632
 Alpha virt. eigenvalues --    2.25727   2.26258   2.26401   2.26819   2.27088
 Alpha virt. eigenvalues --    2.27220   2.28105   2.28482   2.28860   2.29287
 Alpha virt. eigenvalues --    2.29922   2.30237   2.30982   2.31287   2.31613
 Alpha virt. eigenvalues --    2.32036   2.32718   2.33135   2.33201   2.33927
 Alpha virt. eigenvalues --    2.34145   2.35534   2.36148   2.37469   2.37693
 Alpha virt. eigenvalues --    2.38643   2.39073   2.39410   2.39926   2.40194
 Alpha virt. eigenvalues --    2.42448   2.43338   2.44028   2.44499   2.45966
 Alpha virt. eigenvalues --    2.46562   2.47239   2.48265   2.48426   2.48636
 Alpha virt. eigenvalues --    2.48932   2.49831   2.50434   2.51550   2.52152
 Alpha virt. eigenvalues --    2.52240   2.53024   2.53618   2.55236   2.58931
 Alpha virt. eigenvalues --    2.59330   2.59584   2.60367   2.61371   2.61684
 Alpha virt. eigenvalues --    2.61939   2.62665   2.63513   2.63867   2.64436
 Alpha virt. eigenvalues --    2.65089   2.67127   2.67745   2.68460   2.68767
 Alpha virt. eigenvalues --    2.69758   2.70537   2.71233   2.72075   2.73214
 Alpha virt. eigenvalues --    2.76624   2.77417   2.77777   2.77984   2.78859
 Alpha virt. eigenvalues --    2.79048   2.79113   2.80067   2.80487   2.80828
 Alpha virt. eigenvalues --    2.81497   2.81995   2.82505   2.82759   2.83642
 Alpha virt. eigenvalues --    2.83812   2.84187   2.86220   2.88634   2.89379
 Alpha virt. eigenvalues --    2.91227   2.91739   2.93721   2.94476   2.95035
 Alpha virt. eigenvalues --    2.96109   2.96951   2.97419   3.01088   3.03438
 Alpha virt. eigenvalues --    3.04375   3.06715   3.06971   3.07853   3.10079
 Alpha virt. eigenvalues --    3.11513   3.12792   3.12953   3.13920   3.15175
 Alpha virt. eigenvalues --    3.21596   3.26867   3.31744   3.45363  12.53685
          Condensed to atoms (all electrons):
 Mulliken charges:
               1
     1  C    0.324815
     2  C    0.019544
     3  C   -0.077025
     4  C   -0.152227
     5  C   -0.186548
     6  C    0.313078
     7  C    0.035790
     8  C   -0.165823
     9  C   -0.138143
    10  C   -0.172382
    11  H    0.269690
    12  H    0.197960
    13  H    0.171948
    14  H    0.206258
    15  H    0.177457
    16  H    0.161113
    17  N   -0.566929
    18  N   -0.414703
    19  Ir   0.010790
    20  O   -0.513424
    21  O   -0.520869
    22  O   -0.565297
    23  B    0.326564
    24  B    0.456215
    25  B    0.596843
    26  O   -0.541960
    27  O   -0.499338
    28  C    0.283699
    29  C    0.288140
    30  C    0.320761
    31  C    0.289707
    32  C    0.294716
    33  C    0.293873
    34  O   -0.506634
    35  C   -0.490941
    36  H    0.155613
    37  H    0.167043
    38  H    0.141299
    39  C   -0.505561
    40  H    0.153285
    41  H    0.165091
    42  H    0.170320
    43  C   -0.500241
    44  H    0.173129
    45  H    0.151149
    46  H    0.158256
    47  C   -0.499963
    48  H    0.165507
    49  H    0.177361
    50  H    0.147164
    51  C   -0.509167
    52  H    0.173308
    53  H    0.154759
    54  H    0.162230
    55  C   -0.513800
    56  H    0.175713
    57  H    0.184508
    58  H    0.151234
    59  C   -0.509471
    60  H    0.161631
    61  H    0.192306
    62  H    0.146624
    63  C   -0.512445
    64  H    0.176572
    65  H    0.163681
    66  H    0.152660
    67  C   -0.504840
    68  H    0.204795
    69  H    0.130455
    70  H    0.158065
    71  C   -0.509080
    72  H    0.161140
    73  H    0.168009
    74  H    0.142954
    75  C   -0.502258
    76  H    0.152273
    77  H    0.155307
    78  H    0.156639
    79  C   -0.501207
    80  H    0.142843
    81  H    0.173555
    82  H    0.156230
    83  H    0.159600
    84  C    0.581285
    85  O   -0.519569
    86  C   -0.405348
    87  H    0.175832
    88  H    0.147623
    89  C   -0.446091
    90  H    0.211584
    91  H    0.262780
    92  N   -0.359099
    93  C   -0.335510
    94  H    0.163762
    95  H    0.164530
    96  H    0.173061
    97  C   -0.253888
    98  H    0.130226
    99  H    0.162965
   100  C   -0.280636
   101  H    0.148606
   102  H    0.124539
   103  C   -0.287528
   104  H    0.152772
   105  H    0.155152
   106  C   -0.492021
   107  H    0.151564
   108  H    0.170647
   109  H    0.143181
   110  C    0.973690
   111  F   -0.311662
   112  F   -0.304661
   113  F   -0.315706
   114  H    0.176932
 Sum of Mulliken charges =  -0.00000
 Mulliken charges with hydrogens summed into heavy atoms:
               1
     1  C    0.324815
     2  C    0.289234
     3  C   -0.077025
     4  C    0.045733
     5  C   -0.014600
     6  C    0.313078
     7  C    0.242048
     8  C    0.011109
     9  C    0.039314
    10  C   -0.011269
    17  N   -0.566929
    18  N   -0.414703
    19  Ir   0.010790
    20  O   -0.513424
    21  O   -0.520869
    22  O   -0.565297
    23  B    0.486164
    24  B    0.456215
    25  B    0.596843
    26  O   -0.541960
    27  O   -0.499338
    28  C    0.283699
    29  C    0.288140
    30  C    0.320761
    31  C    0.289707
    32  C    0.294716
    33  C    0.293873
    34  O   -0.506634
    35  C   -0.026987
    39  C   -0.016865
    43  C   -0.017708
    47  C   -0.009930
    51  C   -0.018872
    55  C   -0.002346
    59  C   -0.008910
    63  C   -0.019532
    67  C   -0.011525
    71  C   -0.036976
    75  C   -0.038038
    79  C   -0.028580
    84  C    0.581285
    85  O   -0.519569
    86  C   -0.081893
    89  C    0.028273
    92  N   -0.359099
    93  C    0.165843
    97  C    0.039303
   100  C   -0.007492
   103  C    0.020395
   106  C   -0.026629
   110  C    0.973690
   111  F   -0.311662
   112  F   -0.304661
   113  F   -0.315706
 APT charges:
               1
     1  C    0.319386
     2  C    0.050506
     3  C   -0.249104
     4  C    0.126735
     5  C   -0.212105
     6  C    0.117261
     7  C    0.056509
     8  C   -0.040435
     9  C    0.104368
    10  C   -0.145287
    11  H    0.195515
    12  H    0.063557
    13  H    0.063128
    14  H    0.091859
    15  H    0.024835
    16  H    0.034777
    17  N   -0.152283
    18  N   -0.242881
    19  Ir  -0.567209
    20  O   -0.905717
    21  O   -1.045141
    22  O   -1.065443
    23  B    1.373474
    24  B    1.185532
    25  B    1.462787
    26  O   -1.024838
    27  O   -0.908038
    28  C    0.460215
    29  C    0.434618
    30  C    0.546287
    31  C    0.502390
    32  C    0.528412
    33  C    0.523834
    34  O   -1.019163
    35  C   -0.024681
    36  H   -0.012611
    37  H    0.002086
    38  H   -0.011040
    39  C    0.003340
    40  H   -0.016660
    41  H    0.001715
    42  H    0.000146
    43  C   -0.008190
    44  H    0.010191
    45  H   -0.013401
    46  H   -0.001305
    47  C   -0.026243
    48  H    0.003289
    49  H    0.025711
    50  H   -0.025579
    51  C   -0.014445
    52  H    0.006117
    53  H   -0.016166
    54  H    0.001785
    55  C   -0.046577
    56  H    0.011953
    57  H    0.013617
    58  H   -0.024994
    59  C   -0.041445
    60  H   -0.002674
    61  H    0.030899
    62  H   -0.022985
    63  C   -0.010457
    64  H    0.004267
    65  H   -0.002455
    66  H   -0.015890
    67  C   -0.045607
    68  H    0.041163
    69  H   -0.029572
    70  H   -0.010244
    71  C   -0.001344
    72  H   -0.006890
    73  H   -0.004763
    74  H   -0.021152
    75  C   -0.046604
    76  H   -0.031830
    77  H   -0.003333
    78  H    0.001966
    79  C   -0.014242
    80  H   -0.023238
    81  H    0.013958
    82  H   -0.004409
    83  H   -0.044121
    84  C    0.811488
    85  O   -0.674302
    86  C   -0.003012
    87  H   -0.021395
    88  H   -0.018652
    89  C   -0.114287
    90  H   -0.019501
    91  H    0.085066
    92  N   -0.688593
    93  C    0.282491
    94  H   -0.010921
    95  H   -0.023962
    96  H    0.019964
    97  C    0.082367
    98  H   -0.018888
    99  H   -0.029263
   100  C    0.121393
   101  H   -0.054815
   102  H   -0.055326
   103  C    0.123569
   104  H   -0.041509
   105  H   -0.062940
   106  C    0.048744
   107  H   -0.024671
   108  H   -0.029702
   109  H   -0.023996
   110  C    1.731645
   111  F   -0.582334
   112  F   -0.494770
   113  F   -0.576623
   114  H    0.027339
 Sum of APT charges =  -0.00000
 APT charges with hydrogens summed into heavy atoms:
               1
     1  C    0.319386
     2  C    0.246021
     3  C   -0.249104
     4  C    0.190292
     5  C   -0.148976
     6  C    0.117261
     7  C    0.148368
     8  C   -0.013095
     9  C    0.129203
    10  C   -0.110510
    17  N   -0.152283
    18  N   -0.242881
    19  Ir  -0.567209
    20  O   -0.905717
    21  O   -1.045141
    22  O   -1.065443
    23  B    1.329353
    24  B    1.185532
    25  B    1.462787
    26  O   -1.024838
    27  O   -0.908038
    28  C    0.460215
    29  C    0.434618
    30  C    0.546287
    31  C    0.502390
    32  C    0.528412
    33  C    0.523834
    34  O   -1.019163
    35  C   -0.046246
    39  C   -0.011459
    43  C   -0.012705
    47  C   -0.022822
    51  C   -0.022708
    55  C   -0.046001
    59  C   -0.036205
    63  C   -0.024535
    67  C   -0.044260
    71  C   -0.034150
    75  C   -0.079802
    79  C   -0.027931
    84  C    0.811488
    85  O   -0.674302
    86  C   -0.043059
    89  C   -0.048721
    92  N   -0.688593
    93  C    0.267572
    97  C    0.034216
   100  C    0.011251
   103  C    0.019119
   106  C   -0.029625
   110  C    1.731645
   111  F   -0.582334
   112  F   -0.494770
   113  F   -0.576623
 Electronic spatial extent (au):  <R**2>=          30723.6127
 Charge=              0.0000 electrons
 Dipole moment (field-independent basis, Debye):
    X=              1.8035    Y=             -3.8190    Z=              3.3814  Tot=              5.4103
 Quadrupole moment (field-independent basis, Debye-Ang):
   XX=           -315.2600   YY=           -316.7704   ZZ=           -336.6460
   XY=             -2.6827   XZ=             -0.6414   YZ=             -4.8264
 Traceless Quadrupole moment (field-independent basis, Debye-Ang):
   XX=              7.6321   YY=              6.1217   ZZ=            -13.7539
   XY=             -2.6827   XZ=             -0.6414   YZ=             -4.8264
 Octapole moment (field-independent basis, Debye-Ang**2):
  XXX=            -53.5602  YYY=            -93.0423  ZZZ=            -19.4115  XYY=             -6.0369
  XXY=            -54.7939  XXZ=            -17.6331  XZZ=            -16.1855  YZZ=             16.2959
  YYZ=            -53.5838  XYZ=            -45.7086
 Hexadecapole moment (field-independent basis, Debye-Ang**3):
 XXXX=         -20118.0532 YYYY=         -11346.8832 ZZZZ=          -7502.4921 XXXY=            240.6864
 XXXZ=            185.4706 YYYX=             12.4861 YYYZ=            248.8777 ZZZX=             85.9895
 ZZZY=            101.3483 XXYY=          -5386.8853 XXZZ=          -4703.0049 YYZZ=          -3330.4103
 XXYZ=            -48.8906 YYXZ=             71.7700 ZZXY=            110.2389
 N-N= 9.507582613993D+03 E-N=-2.509351403639D+04  KE= 2.527377541376D+03
  Exact polarizability:     554.870     -11.014     542.744      25.357       2.945     418.312
 Approx polarizability:     743.692       1.162     821.784      69.507      26.909     648.365
   1 Symmetry operations used in ECPInt.
 ECPInt:  NShTT=   57970 NPrTT=  353525 LenC2=   43994 LenP2D=  135112.
 LDataN:  DoStor=T MaxTD1= 8 Len=  415
 Calling FoFJK, ICntrl=    100127 FMM=F ISym2X=0 I1Cent= 0 IOpClX= 0 NMat=1 NMatS=1 NMatT=0.
 Defaulting to unpruned grid for atomic number  77.
 Defaulting to unpruned grid for atomic number  77.
 Defaulting to unpruned grid for atomic number  77.
 Defaulting to unpruned grid for atomic number  77.
 Defaulting to unpruned grid for atomic number  77.
 Defaulting to unpruned grid for atomic number  77.
 Defaulting to unpruned grid for atomic number  77.
 Defaulting to unpruned grid for atomic number  77.
 Defaulting to unpruned grid for atomic number  77.
 Defaulting to unpruned grid for atomic number  77.
 Defaulting to unpruned grid for atomic number  77.
 Defaulting to unpruned grid for atomic number  77.
 Defaulting to unpruned grid for atomic number  77.
 Defaulting to unpruned grid for atomic number  77.
 Defaulting to unpruned grid for atomic number  77.
 Defaulting to unpruned grid for atomic number  77.
 Full mass-weighted force constant matrix:
 Low frequencies --- -150.9198   -7.8057   -5.0999   -0.0006   -0.0003    0.0002
 Low frequencies ---    4.5533   20.1390   28.0873
 ******    1 imaginary frequencies (negative Signs) ****** 
 Diagonal vibrational polarizability:
       94.8971939      98.0379585      84.4299303
 Harmonic frequencies (cm**-1), IR intensities (KM/Mole), Raman scattering
 activities (A**4/AMU), depolarization ratios for plane and unpolarized
 incident light, reduced masses (AMU), force constants (mDyne/A),
 and normal coordinates:
                      1                      2                      3
                      A                      A                      A
 Frequencies --   -150.9194                20.0844                28.0279
 Red. masses --      5.6148                 5.9340                 5.9537
 Frc consts  --      0.0753                 0.0014                 0.0028
 IR Inten    --     22.9103                 0.1004                 0.0782
  Atom AN      X      Y      Z        X      Y      Z        X      Y      Z
     1   6     0.00  -0.03   0.01     0.01   0.03   0.04    -0.00  -0.00  -0.00
     2   6    -0.00  -0.02  -0.01     0.02   0.03  -0.01     0.01  -0.01   0.02
     3   6    -0.00  -0.01  -0.01     0.04   0.05  -0.03     0.02  -0.02   0.01
     4   6    -0.01  -0.01   0.01     0.04   0.06  -0.02     0.01  -0.02  -0.01
     5   6    -0.00  -0.02   0.02     0.03   0.05   0.01     0.00  -0.02  -0.01
     6   6     0.01  -0.04   0.02    -0.00   0.01   0.08     0.00   0.01  -0.03
     7   6     0.00  -0.06   0.04     0.01   0.00   0.08     0.02   0.03  -0.07
     8   6     0.03  -0.05   0.01    -0.03  -0.02   0.16     0.03   0.04  -0.11
     9   6     0.04  -0.03  -0.01    -0.06  -0.02   0.21     0.03   0.02  -0.10
    10   6     0.04  -0.02  -0.01    -0.04  -0.01   0.17     0.01   0.01  -0.06
    11   1    -0.00  -0.02  -0.03     0.02   0.03  -0.02     0.00  -0.00   0.04
    12   1    -0.01  -0.00   0.01     0.06   0.07  -0.05     0.02  -0.03  -0.02
    13   1    -0.01  -0.01   0.04     0.04   0.05   0.02     0.00  -0.02  -0.03
    14   1    -0.01  -0.07   0.07     0.03   0.00   0.04     0.02   0.04  -0.07
    15   1     0.06  -0.02  -0.03    -0.09  -0.04   0.28     0.04   0.03  -0.13
    16   1     0.06  -0.01  -0.04    -0.07  -0.01   0.21     0.01   0.00  -0.06
    17   7     0.01  -0.03  -0.01     0.01   0.02   0.02    -0.00   0.00   0.02
    18   7    -0.01  -0.07   0.06     0.02   0.01   0.04     0.00   0.01  -0.03
    19  77    -0.04  -0.01   0.04     0.01   0.01   0.01    -0.01   0.01   0.02
    20   8     0.00   0.03  -0.02    -0.02  -0.05  -0.02     0.01   0.06   0.03
    21   8     0.00  -0.02   0.00    -0.00  -0.01  -0.03    -0.01  -0.04   0.02
    22   8     0.10   0.02  -0.05     0.01   0.01   0.02    -0.02   0.02   0.04
    23   5    -0.02  -0.00  -0.05     0.01   0.00  -0.03     0.00  -0.01   0.01
    24   5     0.02   0.05   0.00    -0.01  -0.02   0.01    -0.02   0.04   0.01
    25   5     0.25   0.02  -0.24     0.00   0.02   0.02     0.00   0.01   0.03
    26   8     0.12   0.03  -0.11    -0.00   0.02   0.03     0.02   0.01  -0.00
    27   8     0.02   0.03   0.02    -0.03  -0.04   0.03    -0.08   0.05  -0.02
    28   6     0.00   0.01   0.01    -0.05  -0.07   0.02    -0.09   0.07  -0.02
    29   6     0.00   0.01  -0.01    -0.03  -0.07  -0.00    -0.03   0.09   0.02
    30   6     0.04  -0.02  -0.01     0.00   0.01   0.04    -0.02   0.01   0.01
    31   6     0.06  -0.05  -0.03     0.00   0.02   0.04    -0.00   0.01  -0.02
    32   6    -0.00  -0.01   0.00     0.00  -0.01  -0.07     0.01  -0.07   0.02
    33   6    -0.00  -0.01  -0.01     0.01  -0.00  -0.08     0.04  -0.05  -0.01
    34   8    -0.02  -0.00  -0.04     0.02   0.01  -0.05     0.02  -0.01  -0.02
    35   6    -0.00   0.00  -0.01    -0.03  -0.06  -0.00    -0.03   0.16   0.04
    36   1    -0.00  -0.01  -0.00    -0.04  -0.07   0.00    -0.05   0.20   0.03
    37   1    -0.00  -0.00  -0.01    -0.02  -0.05  -0.02     0.01   0.16   0.08
    38   1     0.00   0.01   0.00    -0.04  -0.04   0.01    -0.04   0.16   0.03
    39   6    -0.00   0.00  -0.02    -0.03  -0.10  -0.02    -0.01   0.07   0.03
    40   1    -0.00  -0.01  -0.01    -0.04  -0.12  -0.02    -0.03   0.09   0.02
    41   1    -0.00   0.01  -0.02    -0.02  -0.11  -0.03    -0.01   0.03   0.02
    42   1    -0.00  -0.00  -0.02    -0.01  -0.10  -0.04     0.03   0.08   0.05
    43   6    -0.00   0.00   0.03    -0.09  -0.08   0.06    -0.14   0.11  -0.03
    44   1    -0.00   0.00   0.03    -0.11  -0.08   0.07    -0.19   0.09  -0.05
    45   1    -0.01  -0.01   0.02    -0.11  -0.11   0.05    -0.13   0.12  -0.03
    46   1    -0.00   0.00   0.03    -0.09  -0.05   0.08    -0.14   0.17  -0.03
    47   6     0.00   0.01  -0.01    -0.06  -0.10  -0.00    -0.10   0.01  -0.04
    48   1     0.01   0.01  -0.01    -0.07  -0.10   0.01    -0.13  -0.01  -0.06
    49   1     0.01   0.01  -0.01    -0.03  -0.10  -0.02    -0.07  -0.03  -0.03
    50   1    -0.01   0.01  -0.01    -0.08  -0.12  -0.01    -0.11   0.01  -0.04
    51   6     0.00  -0.02   0.01    -0.02  -0.03  -0.08     0.01  -0.11   0.02
    52   1     0.01  -0.02   0.01    -0.02  -0.03  -0.07    -0.02  -0.13   0.04
    53   1     0.00  -0.01   0.01    -0.02  -0.03  -0.11     0.04  -0.14   0.02
    54   1     0.01  -0.02   0.01    -0.04  -0.05  -0.08     0.03  -0.11   0.02
    55   6    -0.01  -0.00   0.01     0.03   0.01  -0.07    -0.01  -0.07   0.03
    56   1    -0.00  -0.00   0.02     0.02   0.01  -0.05    -0.03  -0.07   0.05
    57   1    -0.02  -0.00   0.01     0.04   0.03  -0.06    -0.02  -0.04   0.02
    58   1    -0.01  -0.00   0.02     0.03   0.02  -0.09    -0.01  -0.08   0.03
    59   6     0.02  -0.01  -0.02    -0.01  -0.02  -0.09     0.08  -0.06  -0.02
    60   1     0.02  -0.01  -0.02    -0.01  -0.02  -0.09     0.10  -0.04  -0.04
    61   1     0.03  -0.00  -0.03    -0.02  -0.03  -0.07     0.07  -0.05  -0.02
    62   1     0.03  -0.01  -0.00    -0.02  -0.03  -0.11     0.09  -0.09  -0.02
    63   6    -0.02  -0.01   0.00     0.03   0.01  -0.11     0.05  -0.06  -0.01
    64   1    -0.03  -0.01   0.00     0.04   0.03  -0.10     0.03  -0.05  -0.00
    65   1    -0.02  -0.01  -0.01     0.03   0.02  -0.11     0.08  -0.04  -0.03
    66   1    -0.01  -0.01   0.02     0.02   0.01  -0.13     0.06  -0.09  -0.00
    67   6     0.07  -0.12  -0.05     0.00   0.01   0.04    -0.03   0.01  -0.05
    68   1     0.09  -0.12  -0.06     0.00  -0.00   0.03    -0.04   0.02  -0.03
    69   1     0.04  -0.14  -0.03     0.01   0.00   0.05    -0.05   0.00  -0.07
    70   1     0.08  -0.12  -0.06    -0.00   0.02   0.04    -0.00  -0.01  -0.07
    71   6     0.02  -0.02   0.02     0.00   0.03   0.05     0.02   0.00  -0.04
    72   1     0.00   0.04   0.02    -0.00   0.03   0.05     0.04   0.00  -0.02
    73   1     0.03  -0.03   0.01    -0.00   0.03   0.05     0.03   0.00  -0.06
    74   1    -0.01  -0.05   0.06     0.00   0.02   0.06     0.01   0.00  -0.05
    75   6    -0.00   0.03   0.01     0.00   0.02   0.05     0.00   0.01   0.02
    76   1    -0.03   0.02   0.03     0.00   0.02   0.06     0.01   0.01   0.00
    77   1    -0.01   0.06   0.01     0.00   0.01   0.05    -0.01   0.01   0.05
    78   1     0.01   0.06  -0.00    -0.00   0.03   0.05     0.03  -0.00   0.03
    79   6     0.01  -0.05  -0.00     0.01  -0.01   0.05    -0.06   0.02  -0.00
    80   1    -0.02  -0.07   0.01     0.00  -0.01   0.07    -0.05   0.03  -0.03
    81   1     0.02  -0.07  -0.01     0.02  -0.02   0.04    -0.08   0.03  -0.01
    82   1    -0.00  -0.02   0.01     0.01  -0.01   0.05    -0.07   0.02   0.03
    83   1    -0.13   0.20   0.17     0.02   0.02   0.00    -0.01   0.03   0.03
    84   6    -0.05   0.07  -0.01    -0.02  -0.00  -0.02     0.01  -0.03   0.01
    85   8    -0.08   0.08  -0.00    -0.04   0.00  -0.00    -0.00  -0.02  -0.03
    86   6    -0.03   0.02  -0.01    -0.01  -0.03  -0.04     0.02  -0.05  -0.00
    87   1    -0.02   0.01  -0.01    -0.01  -0.05  -0.06     0.02  -0.06  -0.01
    88   1    -0.02   0.02  -0.01     0.02  -0.01  -0.06     0.04  -0.05  -0.00
    89   6    -0.03   0.25  -0.01    -0.01   0.02   0.00     0.02   0.01   0.04
    90   1     0.12  -0.13  -0.36    -0.02   0.03   0.01     0.03   0.02   0.04
    91   1    -0.10   0.08   0.42    -0.03   0.03   0.00     0.01   0.01   0.02
    92   7     0.00   0.11  -0.00    -0.01   0.01  -0.01     0.02  -0.01   0.05
    93   6     0.07   0.09  -0.01     0.01   0.00  -0.02     0.03  -0.02   0.10
    94   1     0.09   0.08  -0.01     0.02   0.01  -0.03     0.03  -0.05   0.11
    95   1     0.06   0.05  -0.02     0.00  -0.01  -0.03     0.03  -0.01   0.10
    96   1     0.08   0.12   0.00     0.01   0.01  -0.02     0.03   0.01   0.12
    97   6    -0.04   0.01  -0.01    -0.03  -0.04  -0.03     0.00  -0.06  -0.01
    98   1    -0.04   0.01  -0.01    -0.04  -0.01  -0.02    -0.00  -0.05  -0.00
    99   1    -0.05   0.01  -0.01    -0.06  -0.05  -0.02    -0.01  -0.06  -0.01
   100   6    -0.04   0.00  -0.01    -0.02  -0.05  -0.05     0.01  -0.07  -0.01
   101   1    -0.04   0.01  -0.02    -0.01  -0.08  -0.07     0.01  -0.08  -0.02
   102   1    -0.03   0.00  -0.01     0.01  -0.03  -0.06     0.02  -0.07  -0.02
   103   6    -0.03   0.01  -0.02    -0.05  -0.07  -0.03    -0.00  -0.08  -0.01
   104   1    -0.03   0.01  -0.02    -0.08  -0.10  -0.02    -0.01  -0.08  -0.01
   105   1    -0.02   0.01  -0.03    -0.03  -0.09  -0.06     0.00  -0.09  -0.01
   106   6    -0.01   0.01  -0.01    -0.05  -0.02  -0.00    -0.01  -0.07  -0.01
   107   1    -0.02   0.01   0.00    -0.08   0.00   0.03    -0.01  -0.07  -0.01
   108   1    -0.01   0.01  -0.02    -0.08  -0.04  -0.00    -0.01  -0.08  -0.01
   109   1     0.00   0.01  -0.01    -0.01   0.00  -0.01    -0.01  -0.07  -0.01
   110   6    -0.01  -0.01  -0.00     0.05   0.06  -0.08     0.04  -0.02  -0.01
   111   9    -0.01  -0.01  -0.00     0.02   0.06  -0.16    -0.04   0.04  -0.16
   112   9    -0.01  -0.01  -0.00     0.03   0.05  -0.05    -0.03  -0.03   0.14
   113   9    -0.01  -0.01  -0.00     0.14   0.08  -0.10     0.22  -0.08  -0.04
[...]
 4586,-0.00011221,0.00018799,0.00010521,-0.00000674,0.00026496,0.000089
 83,-0.00015539,-0.00054435,-0.00027749,0.00010683,0.00020696,-0.000069
 45,0.00012472,-0.00019833,-0.00005860,0.00029436,0.00005315,0.00009533
 ,-0.00004549,-0.00005649,-0.00014189,-0.00042862,0.00006928,-0.0000110
 1,0.00007531,-0.00004078,0.00000867,0.00007321,0.00005591,0.00000563,-
 0.00001151,-0.00002138,-0.00001185,-0.00002243,-0.00027623,0.00020529,
 0.00025379,0.00008088,-0.00000427,-0.00005254,-0.00006354,-0.00001843,
 0.00009418,-0.00019132,-0.00006917,-0.00031499,0.00001490,0.00010077,0
 .00020754,0.00000694,-0.00002251,-0.00004397,0.00009573,0.00001913,-0.
 00001734,-0.00006933,-0.00001134,0.00004997,-0.00002701,0.00000964,-0.
 00002007,-0.00000952,0.00002179,-0.00000377,-0.00001612,-0.00000875,0.
 00001377,0.00001302,-0.00001992,0.00000974,-0.00002998,-0.00001723,-0.
 00000626,0.00001414,0.00001091,-0.00000271,0.00001008,0.00000468,0.000
 02958,-0.00002579,-0.00001318,-0.00001088,-0.00002312,-0.00004398,0.00
 001569,0.00001670,0.00002660,-0.00000404,0.00001276,0.00000430,-0.0000
 2594,-0.00003645,-0.00001379,0.00002217,-0.00002446,-0.00002457,0.0000
 2157,0.00001417,0.00000427,0.00000626,0.00001415,0.00000727,-0.0000070
 7,-0.00003276,-0.00000931,0.00000246,-0.00004750,-0.00001078,0.0000073
 0,0.00002007,0.00000288,-0.00004688,-0.00002293,0.00004567,0.00001703,
 -0.00001793,-0.00002210,-0.00000309,-0.00005405,-0.00002033,-0.0000064
 2,0.00001275,-0.00000947,0.00002178,-0.00003107,-0.00000877,-0.0000235
 2,-0.00000011,0.00003075,0.00000851,0.00007676,0.00009850,0.00004683,-
 0.00006539,0.00006211,-0.00002215,-0.00003936,-0.00010712,0.00000984,-
 0.00000105,-0.00001955,0.00003272,0.00017653,0.00020095,0.00014567,-0.
 00011112,0.00003533,-0.00003515,-0.00002944,-0.00004256,-0.00002145,0.
 00002688,-0.00018206,-0.00007844,-0.00024388,0.00001259,-0.00018573,0.
 00015173,0.00026349,0.00015360,-0.00015964,-0.00033105,-0.00017708,-0.
 00013322,0.00037594,0.00039226,0.00000588,-0.00002930,-0.00007089,0.00
 005139,-0.00002606,-0.00008944,0.00028329,-0.00006065,0.00016232,-0.00
 004369,0.00002827,-0.00000014,0.00000184,-0.00004281,-0.00000077,-0.00
 016080,-0.00027198,-0.00028692,0.00000387,0.00043603,0.00053988,0.0000
 8037,-0.00018048,-0.00018429,0.00001010,-0.00004582,-0.00002043,-0.000
 04738,-0.00005459,-0.00017044,-0.00005849,-0.00003633,-0.00010665,-0.0
 0003478,0.00003610,0.00003186,0.00005647,-0.00009451,-0.00003714,-0.00
 010745,0.00012292,0.00030963,0.00001303,-0.00000505,0.00000189,-0.0000
 0772,-0.00000057,-0.00025627,-0.00006484,0.00006182,-0.00011335,0.0000
 1112,-0.00007264,0.00001755,0.00009164,-0.00001228,0.00003079,0.000045
 70,-0.00010185,-0.00008122,0.00001436,0.00007333,0.00004033,0.00004283
 ,-0.00006372,0.00002011,-0.00006797,0.00004382,-0.00000063,-0.04456228
 ,-0.03177023,-0.28460835,0.03401422,0.00480130,-0.06494018,-0.03156484
 ,0.03074730,-0.03721868,0.05634665,0.01001808,0.42062347,-0.00025592,-
 0.00006672,0.00085537,-0.00000531,-0.00003531,0.00000847,0.00001305,-0
 .00004523,0.00002277,0.00004852,0.00001028,0.00003792,-0.00006284,0.00
 005580,-0.00009959,-0.00142421,0.00086270,-0.00048504,0.00996666,0.010
 89799,0.00819155,-0.10113956,-0.08916167,-0.06226685,-0.00579909,-0.02
 309493,-0.01133889,-0.00236977,0.00221161,-0.00503480,-0.00001242,0.00
 000921,-0.00001287,-0.00000544,0.00000175,0.00000769,0.00007572,-0.000
 00636,0.00002701,-0.00045856,-0.00093852,0.00124134,0.00010171,-0.0003
 1476,0.00212897,-0.00030195,-0.00111329,-0.00063806,0.00008647,-0.0000
 4807,-0.00007117,0.00138810,0.00486715,-0.00245178,0.00003114,-0.00018
 328,0.00012380,-0.00000189,-0.00002006,-0.00000337,-0.00002392,-0.0000
 4567,-0.00001100,0.00002073,0.00000903,0.00002827,0.00008386,0.0000649
 3,0.00002542,-0.00002947,0.00002941,0.00000887,-0.00001086,-0.00007225
 ,-0.00003250,-0.00002095,0.00003665,-0.00001574,0.00000725,-0.00001073
 ,-0.00000036,0.00000500,0.00000179,0.00000523,-0.00000191,0.00000596,0
 .00000556,0.00000198,0.00000170,-0.00000126,0.00000937,-0.00001111,-0.
 00001516,-0.00000757,0.00003104,0.00000682,0.00003228,0.00003107,-0.00
 001353,-0.00008324,-0.00006992,-0.00003822,-0.00000059,0.00000049,0.00
 000203,0.00000125,-0.00000090,-0.00000208,-0.00000147,-0.00000172,0.00
 000268,-0.00000059,0.00000233,0.00000041,0.00000434,-0.00000032,0.0000
 0023,-0.00000135,-0.00000201,-0.00000188,-0.00000133,0.00000253,0.0000
 0124,0.00000067,-0.00000075,0.00000242,-0.00000249,-0.00000038,0.00000
 145,0.00000117,-0.00000136,0.00000016,0.00000031,0.00000095,-0.0000002
 9,-0.00000037,0.00000077,0.00000006,0.00000132,0.00000157,0.00000067,0
 .00000007,-0.00000171,0.00000025,-0.00000033,0.00000053,0.00000035,0.0
 0000039,0.00000017,-0.00000108,0.00000035,-0.00000650,0.00000018,0.000
 00298,-0.00000535,-0.00000056,-0.00000352,0.00000169,0.00000107,-0.000
 00082,0.00000323,0.00000226,0.00000129,-0.00001024,-0.00000249,0.00000
 255,-0.00000608,-0.00000129,0.00000056,0.00000519,-0.00000095,-0.00000
 432,0.00000208,-0.00000010,-0.00002597,0.00002201,0.00000442,0.0000081
 6,-0.00000727,0.00001600,0.00001072,-0.00001061,-0.00000713,0.00000378
 ,-0.00000445,0.00000024,-0.00001947,0.00005397,0.00000456,0.00000056,-
 0.00000553,-0.00000074,-0.00000247,-0.00003188,0.,0.00000974,-0.000015
 94,-0.00000787,-0.00000015,0.00000173,0.00000375,0.00000029,0.00000101
 ,0.00000057,-0.00000148,-0.00000103,0.00000074,-0.00000138,0.00000095,
 -0.00000215,0.00000006,0.00000225,0.00000287,-0.00000085,-0.00000126,0
 .00000127,0.00000003,0.00000028,-0.00000076,-0.00000081,0.00000066,-0.
 00000084,-0.00000237,-0.00000056,-0.00000051,0.00000079,-0.00000022,-0
 .00000032,-0.00000020,0.00000049,-0.00000014,-0.00000037,-0.00000005,0
 .00000091,0.00000010,0.00000025,-0.00000133,0.00000087,-0.00000017,0.0
 0000085,-0.00000113,0.00000055,0.00000112,-0.00000002,0.00000125,0.000
 00020,-0.00000528,0.00003420,-0.00000048,0.00000645,0.00001002,-0.0000
 0266,-0.00000094,-0.00000830,0.00005295,-0.00000721,-0.00000198,0.0000
 0441,0.00000015,-0.00000532,0.00000335,0.00000305,0.00000687,0.0000043
 1,0.00002427,-0.00000696,-0.00001038,-0.00000240,-0.00000062,0.0000037
 7,0.00000786,-0.00000370,-0.00001680,-0.00001492,-0.00002431,0.0000037
 5,0.00000158,-0.00000149,-0.00001381,-0.00000064,0.00000104,0.00000332
 ,-0.00000183,0.00000069,0.00000077,0.00000160,-0.00000054,0.00000149,0
 .00001689,0.00000729,-0.00002590,-0.00000117,-0.00000236,0.00000366,-0
 .00000653,0.00000037,0.00000676,-0.00000173,-0.00000172,0.00000445,-0.
 00000467,-0.00000429,0.00000197,0.00000141,0.00000491,0.00000345,-0.00
 000370,-0.00000105,-0.00001614,-0.00000237,0.00000099,0.00000818,-0.00
 000540,-0.00000515,0.00000449,0.00002018,0.00000558,0.00001811,0.00000
 129,-0.00000729,-0.00001929,-0.00000885,-0.00000036,-0.00000324,0.0000
 0196,0.00000505,0.00000610,0.00005203,0.00006241,-0.00000776,-0.000013
 58,-0.00001007,0.00000411,-0.00000191,-0.00002704,0.00000355,-0.000013
 81,-0.00001842,-0.00001560,0.10012279,-0.00034701,-0.00007680,0.000288
 48,-0.00000434,0.00003711,0.00000752,-0.00001879,-0.00001791,-0.000006
 86,-0.00003237,-0.00000503,-0.00002214,0.00002646,-0.00003230,-0.00000
 936,0.00179737,-0.00000526,0.00105380,-0.01557484,-0.01411885,-0.01315
 665,-0.08932553,-0.23278774,-0.10614953,0.00299478,0.00640911,0.002751
 14,0.00187181,0.00172914,-0.00068373,0.00000231,-0.00000148,0.00000034
 ,-0.00000806,-0.00000601,0.00000190,0.00001087,0.00000837,-0.00000894,
 -0.00021416,0.00051200,0.00081866,-0.00084140,0.00025686,0.00069246,0.
 00030747,0.00025937,0.00017501,0.00006694,-0.00012771,-0.00005707,0.00
 341949,-0.00487612,-0.00135786,-0.00024909,0.00065887,-0.00002545,0.00
 004991,0.00001745,-0.00008019,0.00016931,0.00011115,0.00000680,-0.0000
 3487,-0.00021035,0.00000904,-0.00039900,-0.00026549,-0.00001937,-0.000
 06083,-0.00010875,0.00018982,0.00020215,0.00025613,-0.00034703,0.00007
 793,-0.00018085,0.00012221,0.00003934,-0.00002143,-0.00013291,-0.00002
 940,-0.00001214,0.00003850,-0.00000261,0.00000372,0.00003825,-0.000054
 46,0.00006345,0.00000403,-0.00004134,0.00006759,0.00004264,-0.00004158
 ,-0.00007264,-0.00003088,-0.00007108,-0.00006365,0.00002140,0.00018888
 ,0.00026772,0.00004895,0.00000053,-0.00000212,-0.00000343,0.00000024,-
 0.00000182,-0.00000484,-0.00000208,-0.00000120,0.00000437,0.00000421,0
 .00000485,0.00000154,-0.00000460,-0.00000070,-0.00000329,0.00000321,0.
 00000171,-0.00000297,0.00000579,-0.00000379,-0.00000013,-0.00000343,0.
 00000316,-0.00000209,0.00000544,0.00000127,-0.00000846,-0.00000069,-0.
 00000136,0.00000207,-0.00000076,-0.00000162,-0.00000640,0.00000213,0.0
 0000108,0.00000268,0.00000110,-0.00000300,-0.00000794,-0.00000064,0.00
 000034,0.00000233,-0.00000237,-0.00000008,0.00000095,0.00000520,-0.000
 00024,-0.00000487,0.00000754,0.00001310,0.00000315,-0.00000594,0.00000
 506,-0.00000031,0.00001079,0.00000102,-0.00000301,-0.00000141,-0.00000
 645,-0.00000062,0.00000864,0.00001707,0.00000477,-0.00000740,0.0000073
 4,0.00000164,-0.00000552,-0.00000968,-0.00000155,0.00001339,-0.0000002
 5,0.00000291,0.00003735,-0.00003461,-0.00000963,-0.00001344,0.00000951
 ,-0.00001656,-0.00001636,0.00000750,0.00001421,-0.00000431,0.00001296,
 -0.00000185,0.00002029,-0.00005524,-0.00000780,0.00000595,-0.00000518,
 0.00000317,0.00000831,0.00004512,-0.00000746,-0.00000903,0.00002226,0.
 00001416,-0.00000034,-0.00000047,-0.00002116,-0.00000531,-0.00000084,0
 .00001014,0.00000601,-0.00000737,-0.00000123,0.00000328,0.00000108,0.0
 0000563,0.00000315,-0.00000736,-0.00000669,-0.00000299,0.00000011,0.00
 000021,0.00000436,0.00000190,0.00000195,0.00000347,-0.00000673,0.00000
 110,0.00001201,-0.00001752,0.00000025,-0.00000086,-0.00001136,0.000004
 49,-0.00000092,0.00000247,-0.00000129,0.00000075,0.00000392,-0.0000008
 6,0.00000077,-0.00000463,0.00000129,0.00000340,-0.00000625,-0.00000160
 ,-0.00000188,0.00000341,0.00000161,-0.00000193,0.00000133,-0.00000146,
 0.00002989,-0.00003348,0.00000820,0.00003225,-0.00002189,-0.00000312,-
 0.00003937,0.00000620,0.00008151,-0.00000197,-0.00000471,-0.00001408,-
 0.00000295,-0.00000262,0.00000331,-0.00000282,0.00000615,0.00000190,-0
 .00001364,0.00007315,0.00006142,-0.00000135,-0.00001797,-0.00000996,-0
 .00002510,-0.00002112,-0.00000919,-0.00004983,0.00000533,0.00002469,0.
 00000625,0.00001235,-0.00001210,0.00000210,-0.00000196,0.00000271,-0.0
 0000766,-0.00000035,0.00000242,0.00000346,-0.00000058,-0.00000187,0.00
 000628,-0.00000147,-0.00001307,0.00000180,-0.00000644,0.00000404,-0.00
 000577,0.00000199,0.00000533,0.00000101,0.00000111,-0.00000044,-0.0000
 0298,-0.00000184,0.00000145,0.00000126,0.00000374,0.00000432,0.0000013
 6,-0.00000296,-0.00000322,-0.00000128,0.00000224,0.00000341,-0.0000030
 2,-0.00000004,-0.00000068,0.00000167,0.00000129,-0.00000019,-0.0000026
 5,-0.00000381,-0.00000229,-0.00000237,0.00000183,-0.00000025,0.0000015
 3,0.00000166,0.00000452,0.00004708,0.00005895,0.00001311,-0.00002165,-
 0.00001551,0.00000343,-0.00000754,-0.00001767,-0.00000302,-0.00001399,
 -0.00001873,-0.00002504,0.09611067,0.24235193,0.00078930,0.00020274,-0
 .00127495,0.00002036,0.00000226,-0.00001222,0.00000383,-0.00003852,-0.
 00003768,0.00003499,0.00004638,0.00001316,-0.00009503,-0.00010348,0.00
 000398,-0.00008328,0.00062032,-0.00000126,0.00074165,0.00234269,0.0020
 6342,-0.06238886,-0.10638948,-0.10074345,-0.00391036,-0.01210323,-0.00
 303197,-0.00518579,-0.00036534,0.00466330,-0.00000635,0.00000248,0.000
 00706,0.00000781,-0.00000192,-0.00001862,-0.00001086,0.00000069,0.0000
 7104,0.00119831,0.00051786,-0.00213902,0.00196501,0.00102216,-0.002432
 76,-0.00019836,-0.00063540,-0.00005087,-0.00023172,0.00001784,0.000073
 15,-0.00272645,-0.00076235,0.00592280,0.00028767,-0.00016427,-0.000177
 13,0.00002126,0.00003949,-0.00005956,0.00008551,0.00002246,-0.00002786
 ,0.00000693,-0.00005331,-0.00004257,-0.00012769,0.00001160,0.00001200,
 -0.00000229,0.00003543,0.00007747,-0.00010547,0.00023163,0.00011123,0.
 00005973,-0.00007465,0.00001124,0.00001212,-0.00000473,-0.00003550,-0.
 00001223,-0.00000241,0.00001664,-0.00001567,0.,0.00001352,-0.00001255,
 0.00002755,-0.00000450,-0.00001924,0.00003124,0.00002475,-0.00001445,-
 0.00003771,-0.00001972,-0.00009773,-0.00007775,0.00010677,0.00020149,0
 .00000062,-0.00003978,0.00000152,-0.00000557,-0.00000371,0.00000018,-0
 .00000201,-0.00000273,-0.00000411,-0.00000116,0.00000466,0.00000166,0.
 00000632,-0.00000043,0.00000234,-0.00000598,0.00000079,0.00000207,0.00
 000286,-0.00000094,0.00000547,-0.00000371,-0.00000018,-0.00000596,0.00
 000373,-0.00000365,-0.00000236,0.00000006,-0.00000290,-0.00000086,0.00
 000080,0.00000124,0.00000109,-0.00000058,-0.00000309,0.00000297,0.0000
 0020,0.00000177,0.00000089,-0.00000044,-0.00000164,-0.00000013,0.00000
 199,0.00000068,-0.00000060,-0.00000101,0.00000242,0.00000167,-0.000000
 97,-0.00000334,0.00000345,0.00000081,0.00000137,-0.00000243,0.00000462
 ,-0.00000368,0.00000678,-0.00000021,0.00000080,-0.00000182,-0.00000593
 ,-0.00000713,0.00000114,0.00001669,0.00000586,-0.00000402,0.00000430,-
 0.00000206,-0.00000096,-0.00000194,-0.00000383,0.00000565,-0.00000069,
 0.00000196,0.00003797,-0.00004629,-0.00004099,0.00000041,-0.00000359,0
 .00000395,-0.00001670,0.00000781,0.00000579,0.00000241,0.00001028,-0.0
 0000579,0.00002171,-0.00002256,-0.00001714,-0.00001280,0.00001544,-0.0
 0000756,-0.00000173,0.00000670,0.00002576,0.00000595,0.00000497,0.0000
 0073,0.00000268,-0.00000494,-0.00000282,-0.00000180,0.00000033,-0.0000
 0045,0.00000289,-0.00000163,-0.00000375,0.00000078,0.00000096,0.000002
 37,0.00000232,-0.00000348,-0.00000320,-0.00000012,0.00000191,-0.000001
 46,0.00000075,0.00000101,0.00000170,0.00000133,-0.00000344,-0.00000018
 ,0.00000248,-0.00000255,0.00000224,0.00000138,-0.00000343,0.00000035,0
 .00000021,0.00000179,0.00000017,-0.00000025,0.00000143,-0.00000269,-0.
 00000025,-0.00000391,0.00000018,0.00000162,-0.00000299,-0.00000103,-0.
 00000012,0.00000069,-0.00000038,-0.00000061,0.00000073,-0.00000061,0.0
 0001763,-0.00004011,0.00001131,-0.00000959,-0.00001654,-0.00001560,0.0
 0000099,0.00001367,-0.00002601,0.00000067,0.00000302,-0.00000189,-0.00
 000156,-0.00000241,0.00000132,-0.00000025,-0.00000536,-0.00000871,-0.0
 0002466,-0.00006130,-0.00000460,-0.00001024,0.00000827,0.00001668,-0.0
 0000157,0.00001362,0.00001622,0.00000696,0.00003484,0.00001450,0.00000
 656,0.00002229,0.00001660,-0.00000042,0.00000212,-0.00001022,-0.000002
 87,-0.00000090,-0.00000203,0.00000160,0.00000062,0.00000045,0.00000477
 ,0.00000039,-0.00000500,-0.00000111,0.00000569,0.00000046,0.00000268,0
 .00000010,-0.00000211,0.00000374,0.00000133,0.00000184,-0.00000279,-0.
 00000189,0.00000152,-0.00000008,-0.00000015,-0.00000244,-0.00000271,-0
 .00000045,-0.00000478,0.00000189,0.00000019,0.00000146,-0.00000536,-0.
 00000305,0.00000006,0.00001543,0.00000405,0.00000804,0.00000003,-0.000
 00424,-0.00000644,-0.00000615,0.00000178,-0.00000084,-0.00000005,-0.00
 000130,0.00000051,-0.00000671,0.00004633,0.00007599,-0.00002247,-0.000
 02371,-0.00000845,0.00000585,-0.00001449,-0.00001103,0.00000031,-0.000
 00336,-0.00001419,0.06977377,0.11569267,0.09697781\\0.00000069,0.00000
 485,0.00000228,-0.00000326,-0.00000731,-0.00000116,0.00000563,-0.00000
 217,0.00000410,-0.00000813,-0.00000039,-0.00000400,-0.00000243,0.00000
 828,-0.00000221,-0.00000263,-0.00000467,-0.00000222,0.00000234,0.00000
 015,-0.00000293,0.00000014,-0.00000003,-0.00000074,0.00000291,-0.00000
 258,-0.00000178,0.00000257,0.00000426,-0.00000006,-0.00000082,0.000003
 07,0.00000032,0.00000248,-0.00000030,0.00000193,0.00000227,-0.00000477
 ,0.00000102,-0.00000335,0.00000100,-0.00000196,-0.00000005,0.00000046,
 -0.00000073,-0.00000168,-0.00000019,-0.00000117,0.00000372,-0.00000132
 ,0.00000024,0.00000287,0.00000369,0.00000204,0.00000076,0.00000104,-0.
 00000155,-0.00000025,-0.00000042,0.00000002,0.00000197,0.00000201,-0.0
 0000067,-0.00000040,0.00000178,-0.00000065,0.00000090,-0.00000401,-0.0
 0000312,-0.00000212,-0.00000309,0.00000340,0.00000225,-0.00000295,0.00
 000356,-0.00000053,0.00000281,-0.00000115,-0.00000019,0.00000294,-0.00
 000108,0.00000145,-0.00000238,-0.00000227,-0.00000050,-0.00000068,-0.0
 0000179,0.00000286,-0.00000244,0.00000094,-0.00000525,0.00000509,-0.00
 000052,0.00000002,0.00000036,-0.00000545,-0.00000463,-0.00000762,-0.00
 000803,0.00000262,0.00000642,0.00000039,-0.00000073,-0.00000232,0.0000
 0824,-0.00000111,-0.00000113,-0.00000444,-0.00000021,-0.00000131,-0.00
 000133,0.00000126,0.00000095,-0.00000193,0.00000341,-0.00000488,-0.000
 00594,-0.00000047,0.00000068,0.00000339,-0.00000299,-0.00000078,-0.000
 00075,-0.00000114,-0.00000017,0.00000006,0.00000442,-0.00000850,0.0000
 0554,-0.00000248,0.00000522,-0.00000173,-0.00000022,-0.00000042,-0.000
 00074,-0.00000339,-0.00000056,0.00000004,-0.00000514,0.00000233,0.0000
 0038,0.00000053,-0.00000264,0.00000165,-0.00000023,-0.00000178,-0.0000
 0027,0.00000074,-0.00000036,-0.00000210,-0.00000308,-0.00000504,-0.000
 00144,-0.00000072,0.00000218,-0.00000047,0.00000195,0.00000120,-0.0000
 0031,0.00000011,-0.00000039,-0.00000018,0.00000196,0.00000322,0.000003
 03,-0.00000022,-0.00000254,-0.00000045,0.00000039,-0.00000086,-0.00000
 079,-0.00000103,-0.00000011,-0.00000176,-0.00000101,0.00000306,0.00000
 540,0.00000095,-0.00000250,-0.00000222,-0.00000137,-0.00000201,-0.0000
 0265,0.00000225,0.00000004,-0.00000279,0.00000268,0.00000482,0.0000018
 6,0.00000006,0.00000034,-0.00000207,0.00000048,-0.00000017,-0.00000089
 ,-0.00000030,-0.00000050,-0.00000116,0.00000187,0.00000140,-0.00000163
 ,0.00000072,-0.00000113,0.00000244,-0.00000052,-0.00000031,0.00000071,
 -0.00000112,-0.00000003,-0.00000036,0.00000037,-0.00000635,0.00000069,
 -0.00000061,0.00000081,0.00000130,0.00000293,0.00000198,0.00000160,-0.
 00000068,0.00000308,0.00000153,0.00000105,0.00000141,0.00000441,0.0000
 0033,-0.00000035,0.00000139,-0.00000096,0.00000077,0.00000095,-0.00000
 013,-0.00000067,-0.00000148,-0.00000410,-0.00000020,0.00000110,0.00000
 043,-0.00000019,0.00000155,0.00000060,0.00000084,0.00000015,0.00000083
 ,0.00000014,0.00000125,-0.00000061,0.00000016,-0.00000046,0.00000362,-
 0.00000231,0.00000222,-0.00000030,0.00000308,-0.00000067,0.00000273,0.
 00000352,0.00000013,-0.00000127,-0.00000034,0.00000232,-0.00000003,-0.
 00000120,-0.00000136,0.00000249,0.00000225,0.00000101,0.00000064,0.000
 00047,0.00000048,0.00000077,0.00000120,0.00000049,-0.00000504,0.000001
 25,-0.00000140,-0.00000341,0.00000365,-0.00000079,0.00000049,0.0000010
 0,0.00000217,0.00000092,0.00000089,0.00000057,0.00000267,-0.00000222,0
 .00000156,0.00000376,0.00000661,0.00000217,-0.00000204,-0.00000205,0.0
 0000190,-0.00000009,-0.00000166,-0.00000174,-0.00000392,-0.00000100,0.
 00000424,0.00000133,0.00000304,-0.00000185,0.00000096,-0.00000091,-0.0
 0000187,0.00000080,0.00000119,0.00000528,0.00000097,-0.00000122,-0.000
 00245,-0.00000083,-0.00000022,-0.00000041,-0.00000427,0.00000184,0.000
 00083,0.00000271,0.00000102,0.00000040,0.00000117,-0.00000063,-0.00000
 049,0.00000061,-0.00000085,-0.00000166,-0.00000023,0.00000424,0.000007
 56,-0.00000140,-0.00000086,0.00000211,0.00000116,-0.00000354,0.0000024
 7,-0.00000224,-0.00000220,-0.00000413,-0.00000068,-0.00000136,-0.00000
 241\\\@
 The archive entry for this job was punched.


 IF I AM NOT FOR MYSELF, WHO WILL BE?
 BUT IF I AM ONLY FOR MYSELF, WHAT AM I?
 THOUGH A SEEKER SINCE MY BIRTH,
 HERE IS ALL I'VE LEARNED ON EARTH,
 THIS IS THE GIST OF WHAT I KNOW:
 GIVE ADVICE AND BUY A FOE.

 PRESSED FOR RULES AND VERITIES,
 ALL I RECOLLECT ARE THESE:
 FEED A COLD TO STARVE A FEVER,
 ARGUE WITH NO TRUE-BELIEVER.
 THINK-TOO-LONG IS NEVER-ACT,
 SCRATCH A MYTH AND FIND A FACT.

 STITCH IN TIME SAVES TWENTY STITCHES,
 GIVE THE RICH TO PLEASE THEM, RICHES.
 GIVE TO LOVE YOU HEARTH AND HALL,
 BUT DO NOT GIVE ADVICE AT ALL.

                                  -- HILLEL
 Job cpu time:       2 days  7 hours 14 minutes 35.7 seconds.
 Elapsed time:       0 days  3 hours 30 minutes 52.1 seconds.
 File lengths (MBytes):  RWF=  10098 Int=      0 D2E=      0 Chk=     55 Scr=      1
 Normal termination of Gaussian 16 at Sat Dec  7 22:19:56 2024.
