/mnt/lustre/scratch/nvme/SLURM/9663539/usccqdma.DBABMdHXht
OMP_STACKSIZE=0m
GAUSS_PDEF=16
GAUSS_MDEF=65536MB
GAUSS_RDEF=SCF=Direct
 Entering Gaussian System, Link 0=g16.exe
 Initial command:
 /opt/cesga/2020/software/Core/g16/c1/l1.exe "/mnt/lustre/scratch/nvme/SLURM/9663539/usccqdma.DBABMdHXht/Gau-896591.inp" -scrdir="/mnt/lustre/scratch/nvme/SLURM/9663539/usccqdma.DBABMdHXht/"
 Default is to use a total of  16 processors:
                               16 via shared-memory
                                1 via Linda
 Entering Link 1 = /opt/cesga/2020/software/Core/g16/c1/l1.exe PID=    896617.
  
 Copyright (c) 1988-2019, Gaussian, Inc.  All Rights Reserved.
  
 This is part of the Gaussian(R) 16 program.  It is based on
 the Gaussian(R) 09 system (copyright 2009, Gaussian, Inc.),
 the Gaussian(R) 03 system (copyright 2003, Gaussian, Inc.),
 the Gaussian(R) 98 system (copyright 1998, Gaussian, Inc.),
 the Gaussian(R) 94 system (copyright 1995, Gaussian, Inc.),
 the Gaussian 92(TM) system (copyright 1992, Gaussian, Inc.),
 the Gaussian 90(TM) system (copyright 1990, Gaussian, Inc.),
 the Gaussian 88(TM) system (copyright 1988, Gaussian, Inc.),
 the Gaussian 86(TM) system (copyright 1986, Carnegie Mellon
 University), and the Gaussian 82(TM) system (copyright 1983,
 Carnegie Mellon University). Gaussian is a federally registered
 trademark of Gaussian, Inc.
  
 This software contains proprietary and confidential information,
 including trade secrets, belonging to Gaussian, Inc.
  
 This software is provided under written license and may be
 used, copied, transmitted, or stored only in accord with that
 written license.
  
 The following legend is applicable only to US Government
 contracts under FAR:
  
                    RESTRICTED RIGHTS LEGEND
  
 Use, reproduction and disclosure by the US Government is
 subject to restrictions as set forth in subparagraphs (a)
 and (c) of the Commercial Computer Software - Restricted
 Rights clause in FAR 52.227-19.
  
 Gaussian, Inc.
 340 Quinnipiac St., Bldg. 40, Wallingford CT 06492
  
  
 ---------------------------------------------------------------
 Warning -- This program may not be used in any manner that
 competes with the business of Gaussian, Inc. or will provide
 assistance to any competitor of Gaussian, Inc.  The licensee
 of this program is prohibited from giving any competitor of
 Gaussian, Inc. access to this program.  By using this program,
 the user acknowledges that Gaussian, Inc. is engaged in the
 business of creating and licensing software in the field of
 computational chemistry and represents and warrants to the
 licensee that it is not a competitor of Gaussian, Inc. and that
 it will not use this program in any manner prohibited above.
 ---------------------------------------------------------------
  

 Cite this work as:
 Gaussian 16, Revision C.01,
 M. J. Frisch, G. W. Trucks, H. B. Schlegel, G. E. Scuseria, 
 M. A. Robb, J. R. Cheeseman, G. Scalmani, V. Barone, 
 G. A. Petersson, H. Nakatsuji, X. Li, M. Caricato, A. V. Marenich, 
 J. Bloino, B. G. Janesko, R. Gomperts, B. Mennucci, H. P. Hratchian, 
 J. V. Ortiz, A. F. Izmaylov, J. L. Sonnenberg, D. Williams-Young, 
 F. Ding, F. Lipparini, F. Egidi, J. Goings, B. Peng, A. Petrone, 
 T. Henderson, D. Ranasinghe, V. G. Zakrzewski, J. Gao, N. Rega, 
 G. Zheng, W. Liang, M. Hada, M. Ehara, K. Toyota, R. Fukuda, 
 J. Hasegawa, M. Ishida, T. Nakajima, Y. Honda, O. Kitao, H. Nakai, 
 T. Vreven, K. Throssell, J. A. Montgomery, Jr., J. E. Peralta, 
 F. Ogliaro, M. J. Bearpark, J. J. Heyd, E. N. Brothers, K. N. Kudin, 
 V. N. Staroverov, T. A. Keith, R. Kobayashi, J. Normand, 
 K. Raghavachari, A. P. Rendell, J. C. Burant, S. S. Iyengar, 
 J. Tomasi, M. Cossi, J. M. Millam, M. Klene, C. Adamo, R. Cammi, 
 J. W. Ochterski, R. L. Martin, K. Morokuma, O. Farkas, 
 J. B. Foresman, and D. J. Fox, Gaussian, Inc., Wallingford CT, 2019.
 
 ******************************************
 Gaussian 16:  ES64L-G16RevC.01  3-Jul-2019
                 7-Dec-2024 
 ******************************************
 Default route: SCF=Direct
 ----------------------------------------------------
 # m06/genecp scf=tight int=ultrafine 5d freq=noraman
 ----------------------------------------------------
 1/10=4,30=1,38=1/1,3;
 2/12=2,17=6,18=5,40=1/2;
 3/5=7,8=1,11=2,16=1,17=8,25=1,30=1,71=2,74=-54,75=-5,140=1/1,2,3;
 4//1;
 5/5=2,32=2,38=5,98=1/2;
 8/6=4,10=90,11=11/1;
 11/6=1,8=1,9=11,15=111,16=1/1,2,10;
 10/6=1/2;
 6/7=2,8=2,9=2,10=2,28=1/1;
 7/8=1,10=1,25=1/1,2,3,16;
 1/10=4,30=1/3;
 99//99;
 ------
 OPT-TS
 ------
 Symbolic Z-matrix:
 Charge =  0 Multiplicity = 1
 C                    -2.05358   1.17702   1.2615 
 C                    -1.90513  -1.05831   0.66088 
 C                    -3.18749  -1.31549   1.11883 
 C                    -3.91641  -0.27456   1.69187 
 C                    -3.3367    0.97803   1.77916 
 C                    -1.37422   2.49009   1.27546 
 C                     0.60345   3.6417    0.8985 
 C                     0.01657   4.85187   1.24747 
 C                    -1.32599   4.86415   1.60313 
 C                    -2.0308    3.66958   1.61871 
 H                    -1.27241  -1.84292   0.24776 
 H                    -4.92552  -0.44937   2.06416 
 H                    -3.8844    1.79895   2.23374 
 H                     1.64931   3.55914   0.59767 
 H                    -1.82675   5.79634   1.85645 
 H                    -3.09292   3.66495   1.84688 
 N                    -1.36188   0.15993   0.71685 
 N                    -0.07704   2.48967   0.90839 
 Ir                    0.73915   0.55443  -0.01644 
 O                     2.96824  -0.48618   1.77406 
 O                     3.24572   2.24345  -0.01137 
 O                     1.63399  -2.33313  -0.61595 
 B                     2.63757   1.07928  -0.50793 
 B                     1.62804  -0.49766   1.42087 
 B                     1.19152  -1.09377  -1.08353 
 O                     1.00009  -1.16974  -2.47189 
 O                     0.8956   -1.30452   2.28677 
 C                     1.7531   -1.65192   3.38349 
 C                     3.17326  -1.51006   2.75959 
 C                     2.04637  -3.12146  -1.73965 
 C                     1.17481  -2.53191  -2.88496 
 C                     4.47102   2.45671  -0.72384 
 C                     4.82668   1.02133  -1.20414 
 O                     3.53269   0.42597  -1.35226 
 C                     4.25045  -1.0554    3.7247 
 H                     4.36467  -1.77376   4.54958 
 H                     5.21294  -0.99038   3.20015 
 H                     4.0295   -0.06855   4.14614 
 C                     3.6318   -2.76035   2.02211 
 H                     4.52632  -2.50594   1.4368 
 H                     3.89077  -3.57286   2.71488 
 H                     2.86011  -3.10259   1.32197 
 C                     1.48844  -0.64229   4.49387 
 H                     0.41888  -0.66214   4.73914 
 H                     2.05484  -0.87302   5.40625 
 H                     1.74241   0.37581   4.17034 
 C                     1.40607  -3.04763   3.86077 
 H                     1.43037  -3.76999   3.03784 
 H                     2.10444  -3.37928   4.64285 
 H                     0.39417  -3.05357   4.28653 
 C                     4.16026   3.40937  -1.87254 
 H                     5.0612    3.68795  -2.4358 
 H                     3.43475   2.96617  -2.56734 
 H                     3.71808   4.32686  -1.46132 
 C                     5.48711   3.08619   0.208 
 H                     5.15723   4.09385   0.49389 
 H                     5.60821   2.49786   1.12383 
 H                     6.4662    3.17884  -0.28426 
 C                     5.55648   0.95746  -2.53198 
 H                     4.95939   1.38552  -3.34484 
 H                     6.51598   1.49259  -2.4792 
 H                     5.76988  -0.08922  -2.78671 
 C                     5.58195   0.21067  -0.15796 
 H                     6.61784   0.55783  -0.03986 
 H                     5.0674    0.2454    0.81017 
 H                     5.60474  -0.8386   -0.48348 
 C                     1.8263   -2.54914  -4.25368 
 H                     2.05508  -3.57772  -4.56877 
 H                     1.14457  -2.11154  -4.9949 
 H                     2.75149  -1.96315  -4.26058 
 C                    -0.20585  -3.1748   -2.966 
 H                    -0.82136  -2.6201   -3.68674 
 H                    -0.15386  -4.21816  -3.30478 
 H                    -0.71643  -3.15217  -1.99216 
 C                     1.79618  -4.58542  -1.4335 
 H                     2.01011  -5.21257  -2.3113 
 H                     2.45818  -4.91061  -0.62011 
 H                     0.7626   -4.76501  -1.11673 
 C                     3.53718  -2.88084  -1.94078 
 H                     3.94699  -3.50256  -2.74884 
 H                     3.73478  -1.82249  -2.15163 
 H                     4.05987  -3.13799  -1.00948 
 H                    -0.15704   1.47592  -1.9902 
 C                    -3.35511   1.62265  -1.63885 
 O                    -3.39575   2.70242  -1.05617 
 C                    -4.5628    0.70391  -1.68024 
 H                    -4.79999   0.44978  -2.72647 
 H                    -4.30738  -0.2586   -1.20504 
 C                    -1.05803   2.01676  -2.34662 
 H                    -0.85317   2.3041   -3.38874 
 H                    -1.22364   2.91665  -1.74849 
 N                    -2.22701   1.16798  -2.26316 
 C                    -2.13947  -0.10113  -2.95957 
 H                    -2.53125  -0.04059  -3.98774 
 H                    -1.08474  -0.4029   -2.99742 
 H                    -2.68567  -0.88949  -2.42673 
 C                    -5.77586   1.29814  -0.98923 
 H                    -5.49142   1.61362   0.02712 
 H                    -6.08134   2.22325  -1.50131 
 C                    -6.93674   0.31942  -0.92067 
 H                    -7.24901   0.03582  -1.94092 
 H                    -6.59995  -0.6191   -0.44479 
 C                    -8.13353   0.86812  -0.15891 
 H                    -7.81767   1.13065   0.86494 
 H                    -8.45715   1.81392  -0.62277 
 C                    -9.29505  -0.10984  -0.10753 
 H                    -10.1488   0.29377   0.45067 
 H                    -9.6457   -0.35778  -1.11901 
 H                    -8.99677  -1.05191   0.37355 
 C                    -3.82147  -2.65447   0.92258 
 F                    -2.9292   -3.59703   0.62397 
 F                    -4.49349  -3.04353   2.00973 
 F                    -4.70914  -2.60981  -0.0871 
 H                     0.60485   5.76584   1.22469 
 

 GradGradGradGradGradGradGradGradGradGradGradGradGradGradGradGradGradGrad
 Berny optimization.
 Initialization pass.
 Trust Radius=3.00D-01 FncErr=1.00D-07 GrdErr=1.00D-07 EigMax=2.50D+02 EigMin=1.00D-04
 Number of steps in this run=      2 maximum allowed number of steps=      2.
 GradGradGradGradGradGradGradGradGradGradGradGradGradGradGradGradGradGrad

 Stoichiometry    C37H60B3F3IrN3O7
 Framework group  C1[X(C37H60B3F3IrN3O7)]
 Deg. of freedom   336
 Full point group                 C1      NOp   1
 Largest Abelian subgroup         C1      NOp   1
 Largest concise Abelian subgroup C1      NOp   1
                         Standard orientation:                         
 ---------------------------------------------------------------------
 Center     Atomic      Atomic             Coordinates (Angstroms)
 Number     Number       Type             X           Y           Z
 ---------------------------------------------------------------------
      1          6           0       -2.053580    1.177020    1.261500
      2          6           0       -1.905130   -1.058310    0.660880
      3          6           0       -3.187490   -1.315490    1.118830
      4          6           0       -3.916410   -0.274560    1.691870
      5          6           0       -3.336700    0.978030    1.779160
      6          6           0       -1.374220    2.490090    1.275460
      7          6           0        0.603450    3.641700    0.898500
      8          6           0        0.016570    4.851870    1.247470
      9          6           0       -1.325990    4.864150    1.603130
     10          6           0       -2.030800    3.669580    1.618710
     11          1           0       -1.272410   -1.842920    0.247760
     12          1           0       -4.925520   -0.449369    2.064160
     13          1           0       -3.884400    1.798950    2.233740
     14          1           0        1.649310    3.559140    0.597670
     15          1           0       -1.826750    5.796340    1.856450
     16          1           0       -3.092920    3.664950    1.846880
     17          7           0       -1.361880    0.159930    0.716850
     18          7           0       -0.077040    2.489670    0.908390
     19         77           0        0.739150    0.554430   -0.016440
     20          8           0        2.968240   -0.486180    1.774060
     21          8           0        3.245720    2.243450   -0.011370
     22          8           0        1.633989   -2.333130   -0.615950
     23          5           0        2.637570    1.079280   -0.507930
     24          5           0        1.628040   -0.497660    1.420870
     25          5           0        1.191520   -1.093770   -1.083530
     26          8           0        1.000090   -1.169740   -2.471890
     27          8           0        0.895600   -1.304520    2.286770
     28          6           0        1.753100   -1.651920    3.383490
     29          6           0        3.173260   -1.510060    2.759590
     30          6           0        2.046369   -3.121460   -1.739650
     31          6           0        1.174809   -2.531910   -2.884960
     32          6           0        4.471020    2.456710   -0.723840
     33          6           0        4.826680    1.021330   -1.204140
     34          8           0        3.532690    0.425970   -1.352260
     35          6           0        4.250450   -1.055400    3.724700
     36          1           0        4.364670   -1.773760    4.549580
     37          1           0        5.212940   -0.990380    3.200150
     38          1           0        4.029500   -0.068550    4.146140
     39          6           0        3.631799   -2.760350    2.022110
     40          1           0        4.526319   -2.505940    1.436800
     41          1           0        3.890769   -3.572860    2.714880
     42          1           0        2.860109   -3.102590    1.321970
     43          6           0        1.488440   -0.642290    4.493870
     44          1           0        0.418880   -0.662140    4.739140
     45          1           0        2.054840   -0.873020    5.406250
     46          1           0        1.742410    0.375810    4.170340
     47          6           0        1.406069   -3.047630    3.860770
     48          1           0        1.430369   -3.769990    3.037840
     49          1           0        2.104439   -3.379280    4.642850
     50          1           0        0.394169   -3.053570    4.286530
     51          6           0        4.160260    3.409370   -1.872540
     52          1           0        5.061200    3.687950   -2.435800
     53          1           0        3.434750    2.966170   -2.567340
     54          1           0        3.718080    4.326860   -1.461320
     55          6           0        5.487110    3.086190    0.208000
     56          1           0        5.157230    4.093850    0.493890
     57          1           0        5.608210    2.497860    1.123830
     58          1           0        6.466200    3.178840   -0.284260
     59          6           0        5.556480    0.957460   -2.531980
     60          1           0        4.959390    1.385520   -3.344840
     61          1           0        6.515980    1.492590   -2.479200
     62          1           0        5.769880   -0.089220   -2.786710
     63          6           0        5.581950    0.210670   -0.157960
     64          1           0        6.617840    0.557830   -0.039860
     65          1           0        5.067400    0.245400    0.810170
     66          1           0        5.604740   -0.838600   -0.483480
     67          6           0        1.826299   -2.549140   -4.253680
     68          1           0        2.055079   -3.577720   -4.568770
     69          1           0        1.144570   -2.111540   -4.994900
     70          1           0        2.751490   -1.963150   -4.260580
     71          6           0       -0.205851   -3.174800   -2.966000
     72          1           0       -0.821361   -2.620100   -3.686740
     73          1           0       -0.153861   -4.218160   -3.304780
     74          1           0       -0.716431   -3.152170   -1.992160
     75          6           0        1.796179   -4.585420   -1.433500
     76          1           0        2.010109   -5.212570   -2.311300
     77          1           0        2.458179   -4.910610   -0.620110
     78          1           0        0.762599   -4.765010   -1.116730
     79          6           0        3.537179   -2.880840   -1.940780
     80          1           0        3.946989   -3.502560   -2.748840
     81          1           0        3.734780   -1.822490   -2.151630
     82          1           0        4.059869   -3.137990   -1.009480
     83          1           0       -0.157040    1.475920   -1.990200
     84          6           0       -3.355110    1.622650   -1.638850
     85          8           0       -3.395750    2.702420   -1.056170
     86          6           0       -4.562800    0.703911   -1.680240
     87          1           0       -4.799990    0.449781   -2.726470
     88          1           0       -4.307380   -0.258600   -1.205040
     89          6           0       -1.058030    2.016760   -2.346620
     90          1           0       -0.853170    2.304100   -3.388740
     91          1           0       -1.223640    2.916650   -1.748490
     92          7           0       -2.227010    1.167980   -2.263160
     93          6           0       -2.139470   -0.101130   -2.959570
     94          1           0       -2.531250   -0.040590   -3.987740
     95          1           0       -1.084740   -0.402900   -2.997420
     96          1           0       -2.685670   -0.889490   -2.426730
     97          6           0       -5.775860    1.298141   -0.989230
     98          1           0       -5.491420    1.613621    0.027120
     99          1           0       -6.081340    2.223251   -1.501310
    100          6           0       -6.936740    0.319421   -0.920670
    101          1           0       -7.249010    0.035821   -1.940920
    102          1           0       -6.599950   -0.619099   -0.444790
    103          6           0       -8.133530    0.868121   -0.158910
    104          1           0       -7.817670    1.130651    0.864940
    105          1           0       -8.457150    1.813921   -0.622770
    106          6           0       -9.295050   -0.109839   -0.107530
    107          1           0      -10.148800    0.293771    0.450670
    108          1           0       -9.645700   -0.357779   -1.119010
    109          1           0       -8.996770   -1.051909    0.373550
    110          6           0       -3.821471   -2.654470    0.922580
    111          9           0       -2.929201   -3.597030    0.623970
    112          9           0       -4.493491   -3.043529    2.009730
    113          9           0       -4.709141   -2.609809   -0.087100
    114          1           0        0.604850    5.765840    1.224690
 ---------------------------------------------------------------------
 Rotational constants (GHZ):           0.0714763           0.0387947           0.0355807
 General basis read from cards:  (5D, 7F)
 ======================================================================================================
                                       Pseudopotential Parameters
 ======================================================================================================
  Center     Atomic      Valence      Angular      Power
  Number     Number     Electrons     Momentum     of R      Exponent        Coefficient   SO-Coeffient
 ======================================================================================================
    1          6
                                   No pseudopotential on this center.
    2          6
                                   No pseudopotential on this center.
    3          6
                                   No pseudopotential on this center.
    4          6
                                   No pseudopotential on this center.
    5          6
                                   No pseudopotential on this center.
    6          6
                                   No pseudopotential on this center.
    7          6
                                   No pseudopotential on this center.
    8          6
                                   No pseudopotential on this center.
    9          6
                                   No pseudopotential on this center.
   10          6
                                   No pseudopotential on this center.
   11          1
                                   No pseudopotential on this center.
   12          1
                                   No pseudopotential on this center.
   13          1
                                   No pseudopotential on this center.
   14          1
                                   No pseudopotential on this center.
   15          1
                                   No pseudopotential on this center.
   16          1
                                   No pseudopotential on this center.
   17          7
                                   No pseudopotential on this center.
   18          7
                                   No pseudopotential on this center.
   19         77           17
                                      G and up 
                                                     1      823.5880147       -0.15780140    0.00000000
                                                     2      364.6613336    -1517.52704460    0.00000000
                                                     2       55.7082801     -316.53065290    0.00000000
                                                     2       12.0464544      -91.88809410    0.00000000
                                                     2        3.5120610       -9.22417730    0.00000000
                                      S - G
                                                     0      188.0490770        3.15780140    0.00000000
                                                     1      340.4194712       26.83225770    0.00000000
                                                     2      128.2373673      800.42500070    0.00000000
                                                     2       33.8644961      369.40506830    0.00000000
                                                     2        4.7560005      242.41718990    0.00000000
                                                     2        3.9649974     -118.21732820    0.00000000
                                      P - G
                                                     0      289.7291139        2.15780140    0.00000000
                                                     1       87.4633789       61.96786100    0.00000000
                                                     2       30.4363766      269.05819860    0.00000000
                                                     2        4.0553412      231.16547930    0.00000000
                                                     2        3.5525341     -133.69526670    0.00000000
                                      D - G
                                                     0      136.4017106        3.15780140    0.00000000
                                                     1       95.0776925       45.93498030    0.00000000
                                                     2       49.2258410      359.03446680    0.00000000
                                                     2       15.0874145      176.47401190    0.00000000
                                                     2        4.0405764       54.51552860    0.00000000
                                      F - G
                                                     0      127.3507908        3.95461970    0.00000000
                                                     1       66.2364374       52.97736550    0.00000000
                                                     2       34.4299229      274.86433830    0.00000000
                                                     2       10.1995721      137.20473380    0.00000000
                                                     2        2.5409702       14.86333050    0.00000000
   20          8
                                   No pseudopotential on this center.
   21          8
                                   No pseudopotential on this center.
   22          8
                                   No pseudopotential on this center.
   23          5
                                   No pseudopotential on this center.
   24          5
                                   No pseudopotential on this center.
   25          5
                                   No pseudopotential on this center.
   26          8
                                   No pseudopotential on this center.
   27          8
                                   No pseudopotential on this center.
   28          6
                                   No pseudopotential on this center.
   29          6
                                   No pseudopotential on this center.
   30          6
                                   No pseudopotential on this center.
   31          6
                                   No pseudopotential on this center.
   32          6
                                   No pseudopotential on this center.
   33          6
                                   No pseudopotential on this center.
   34          8
                                   No pseudopotential on this center.
   35          6
                                   No pseudopotential on this center.
   36          1
                                   No pseudopotential on this center.
   37          1
                                   No pseudopotential on this center.
   38          1
                                   No pseudopotential on this center.
   39          6
                                   No pseudopotential on this center.
   40          1
                                   No pseudopotential on this center.
   41          1
                                   No pseudopotential on this center.
   42          1
                                   No pseudopotential on this center.
   43          6
                                   No pseudopotential on this center.
   44          1
                                   No pseudopotential on this center.
   45          1
                                   No pseudopotential on this center.
   46          1
                                   No pseudopotential on this center.
   47          6
                                   No pseudopotential on this center.
   48          1
                                   No pseudopotential on this center.
   49          1
                                   No pseudopotential on this center.
   50          1
                                   No pseudopotential on this center.
   51          6
                                   No pseudopotential on this center.
   52          1
                                   No pseudopotential on this center.
   53          1
                                   No pseudopotential on this center.
   54          1
                                   No pseudopotential on this center.
   55          6
                                   No pseudopotential on this center.
   56          1
                                   No pseudopotential on this center.
   57          1
                                   No pseudopotential on this center.
   58          1
                                   No pseudopotential on this center.
   59          6
                                   No pseudopotential on this center.
   60          1
                                   No pseudopotential on this center.
   61          1
                                   No pseudopotential on this center.
   62          1
                                   No pseudopotential on this center.
   63          6
                                   No pseudopotential on this center.
   64          1
                                   No pseudopotential on this center.
   65          1
                                   No pseudopotential on this center.
   66          1
                                   No pseudopotential on this center.
   67          6
                                   No pseudopotential on this center.
   68          1
                                   No pseudopotential on this center.
   69          1
                                   No pseudopotential on this center.
   70          1
                                   No pseudopotential on this center.
   71          6
                                   No pseudopotential on this center.
   72          1
                                   No pseudopotential on this center.
   73          1
                                   No pseudopotential on this center.
   74          1
                                   No pseudopotential on this center.
   75          6
                                   No pseudopotential on this center.
   76          1
                                   No pseudopotential on this center.
   77          1
                                   No pseudopotential on this center.
   78          1
                                   No pseudopotential on this center.
   79          6
                                   No pseudopotential on this center.
   80          1
                                   No pseudopotential on this center.
   81          1
                                   No pseudopotential on this center.
   82          1
                                   No pseudopotential on this center.
   83          1
                                   No pseudopotential on this center.
   84          6
                                   No pseudopotential on this center.
   85          8
                                   No pseudopotential on this center.
   86          6
                                   No pseudopotential on this center.
   87          1
                                   No pseudopotential on this center.
   88          1
                                   No pseudopotential on this center.
   89          6
                                   No pseudopotential on this center.
   90          1
                                   No pseudopotential on this center.
   91          1
                                   No pseudopotential on this center.
   92          7
                                   No pseudopotential on this center.
   93          6
                                   No pseudopotential on this center.
   94          1
                                   No pseudopotential on this center.
   95          1
                                   No pseudopotential on this center.
   96          1
                                   No pseudopotential on this center.
   97          6
                                   No pseudopotential on this center.
   98          1
                                   No pseudopotential on this center.
   99          1
                                   No pseudopotential on this center.
  100          6
                                   No pseudopotential on this center.
  101          1
                                   No pseudopotential on this center.
  102          1
                                   No pseudopotential on this center.
  103          6
                                   No pseudopotential on this center.
  104          1
                                   No pseudopotential on this center.
  105          1
                                   No pseudopotential on this center.
  106          6
                                   No pseudopotential on this center.
  107          1
                                   No pseudopotential on this center.
  108          1
                                   No pseudopotential on this center.
  109          1
                                   No pseudopotential on this center.
  110          6
                                   No pseudopotential on this center.
  111          9
                                   No pseudopotential on this center.
  112          9
                                   No pseudopotential on this center.
  113          9
                                   No pseudopotential on this center.
  114          1
                                   No pseudopotential on this center.
 ======================================================================================================
 There are   939 symmetry adapted cartesian basis functions of A   symmetry.
 There are   884 symmetry adapted basis functions of A   symmetry.
   884 basis functions,  1767 primitive gaussians,   939 cartesian basis functions
   209 alpha electrons      209 beta electrons
       nuclear repulsion energy      9181.6331291243 Hartrees.
 NAtoms=  114 NActive=  114 NUniq=  114 SFac= 1.00D+00 NAtFMM=   60 NAOKFM=T Big=T
 Integral buffers will be    131072 words long.
 Raffenetti 2 integral format.
 Two-electron integral symmetry is turned on.
 One-electron integrals computed using PRISM.
   1 Symmetry operations used in ECPInt.
 ECPInt:  NShTT=   57970 NPrTT=  353525 LenC2=   41880 LenP2D=  128157.
 LDataN:  DoStor=T MaxTD1= 6 Len=  172
 NBasis=   884 RedAO= T EigKep=  4.83D-04  NBF=   884
 NBsUse=   884 1.00D-06 EigRej= -1.00D+00 NBFU=   884
 Defaulting to unpruned grid for atomic number  77.
 ExpMin= 2.90D-02 ExpMax= 7.00D+03 ExpMxC= 1.05D+03 IAcc=3 IRadAn=         5 AccDes= 0.00D+00
 Harris functional with IExCor= 1009 and IRadAn=       5 diagonalized for initial guess.
 HarFok:  IExCor= 1009 AccDes= 0.00D+00 IRadAn=         5 IDoV= 1 UseB2=F ITyADJ=14
 ICtDFT=  3500011 ScaDFX=  1.000000  1.000000  1.000000  1.000000
 Defaulting to unpruned grid for atomic number  77.
 FoFCou: FMM=F IPFlag=           0 FMFlag=      100000 FMFlg1=        2001
         NFxFlg=           0 DoJE=T BraDBF=F KetDBF=T FulRan=T
         wScrn=  0.000000 ICntrl=       500 IOpCl=  0 I1Cent=   200000004 NGrid=           0
         NMat0=    1 NMatS0=      1 NMatT0=    0 NMatD0=    1 NMtDS0=    0 NMtDT0=    0
 Petite list used in FoFCou.
 Requested convergence on RMS density matrix=1.00D-08 within 128 cycles.
 Requested convergence on MAX density matrix=1.00D-06.
 Requested convergence on             energy=1.00D-06.
 No special actions if energy rises.
 Defaulting to unpruned grid for atomic number  77.
 Defaulting to unpruned grid for atomic number  77.
 Defaulting to unpruned grid for atomic number  77.
 Defaulting to unpruned grid for atomic number  77.
 Defaulting to unpruned grid for atomic number  77.
 Defaulting to unpruned grid for atomic number  77.
 Defaulting to unpruned grid for atomic number  77.
 Defaulting to unpruned grid for atomic number  77.
 Defaulting to unpruned grid for atomic number  77.
 Defaulting to unpruned grid for atomic number  77.
 Defaulting to unpruned grid for atomic number  77.
 Defaulting to unpruned grid for atomic number  77.
 Defaulting to unpruned grid for atomic number  77.
 Defaulting to unpruned grid for atomic number  77.
 Defaulting to unpruned grid for atomic number  77.
 Defaulting to unpruned grid for atomic number  77.
 SCF Done:  E(RM06) =  -2614.48232034     A.U. after   15 cycles
            NFock= 15  Conv=0.94D-08     -V/T= 2.0344
 DoSCS=F DFT=T ScalE2(SS,OS)=  1.000000  1.000000
 Range of M.O.s used for correlation:     1   884
 NBasis=   884 NAE=   209 NBE=   209 NFC=     0 NFV=     0
 NROrb=    884 NOA=   209 NOB=   209 NVA=   675 NVB=   675
   1 Symmetry operations used in ECPInt.
 ECPInt:  NShTT=   57970 NPrTT=  353525 LenC2=   41880 LenP2D=  128157.
 LDataN:  DoStor=T MaxTD1= 7 Len=  274
 Number of processors reduced to   7 by ecpmxn.
 Symmetrizing basis deriv contribution to polar:
 IMax=3 JMax=2 DiffMx= 0.00D+00
 G2DrvN: will do   115 centers at a time, making    1 passes.
 Calling FoFCou, ICntrl=  3107 FMM=T I1Cent=   0 AccDes= 0.00D+00.
 Defaulting to unpruned grid for atomic number  77.
 Defaulting to unpruned grid for atomic number  77.
 Defaulting to unpruned grid for atomic number  77.
 Defaulting to unpruned grid for atomic number  77.
 Defaulting to unpruned grid for atomic number  77.
 Defaulting to unpruned grid for atomic number  77.
 Defaulting to unpruned grid for atomic number  77.
 Defaulting to unpruned grid for atomic number  77.
 Defaulting to unpruned grid for atomic number  77.
 Defaulting to unpruned grid for atomic number  77.
 Defaulting to unpruned grid for atomic number  77.
 Defaulting to unpruned grid for atomic number  77.
 Defaulting to unpruned grid for atomic number  77.
 Defaulting to unpruned grid for atomic number  77.
 Defaulting to unpruned grid for atomic number  77.
 Defaulting to unpruned grid for atomic number  77.
 End of G2Drv F.D. properties file   721 does not exist.
 End of G2Drv F.D. properties file   722 does not exist.
 End of G2Drv F.D. properties file   788 does not exist.
          IDoAtm=11111111111111111111111111111111111111111111111111
          IDoAtm=11111111111111111111111111111111111111111111111111
          IDoAtm=11111111111111
          Differentiating once with respect to electric field.
                with respect to dipole field.
          Differentiating once with respect to nuclear coordinates.
 Defaulting to unpruned grid for atomic number  77.
 CalDSu exits because no D1Ps are significant.
 Defaulting to unpruned grid for atomic number  77.
 Defaulting to unpruned grid for atomic number  77.
 Defaulting to unpruned grid for atomic number  77.
 Defaulting to unpruned grid for atomic number  77.
 Defaulting to unpruned grid for atomic number  77.
 Defaulting to unpruned grid for atomic number  77.
 Defaulting to unpruned grid for atomic number  77.
 Defaulting to unpruned grid for atomic number  77.
 Defaulting to unpruned grid for atomic number  77.
 Defaulting to unpruned grid for atomic number  77.
 Defaulting to unpruned grid for atomic number  77.
 Defaulting to unpruned grid for atomic number  77.
 Defaulting to unpruned grid for atomic number  77.
 Defaulting to unpruned grid for atomic number  77.
 Defaulting to unpruned grid for atomic number  77.
 Defaulting to unpruned grid for atomic number  77.
          There are   345 degrees of freedom in the 1st order CPHF.  IDoFFX=6 NUNeed=     3.
    342 vectors produced by pass  0 Test12= 1.41D-13 1.00D-09 XBig12= 4.98D+02 9.79D+00.
 AX will form    72 AO Fock derivatives at one time.
    342 vectors produced by pass  1 Test12= 1.41D-13 1.00D-09 XBig12= 8.89D+01 1.30D+00.
    342 vectors produced by pass  2 Test12= 1.41D-13 1.00D-09 XBig12= 1.17D+00 1.02D-01.
    342 vectors produced by pass  3 Test12= 1.41D-13 1.00D-09 XBig12= 7.57D-03 9.61D-03.
    342 vectors produced by pass  4 Test12= 1.41D-13 1.00D-09 XBig12= 3.06D-05 5.28D-04.
    302 vectors produced by pass  5 Test12= 1.41D-13 1.00D-09 XBig12= 6.49D-08 1.56D-05.
     75 vectors produced by pass  6 Test12= 1.41D-13 1.00D-09 XBig12= 9.77D-11 6.73D-07.
      3 vectors produced by pass  7 Test12= 1.41D-13 1.00D-09 XBig12= 1.36D-13 2.04D-08.
 InvSVY:  IOpt=1 It=  1 EMax= 3.55D-14
 Solved reduced A of dimension  2090 with   345 vectors.
 Isotropic polarizability for W=    0.000000      509.35 Bohr**3.
 End of Minotr F.D. properties file   721 does not exist.
 End of Minotr F.D. properties file   722 does not exist.
 End of Minotr F.D. properties file   788 does not exist.
 Hyperfine terms turned off by default for NAtoms > 100.

 **********************************************************************

            Population analysis using the SCF Density.

 **********************************************************************

 Orbital symmetries:
       Occupied  (A) (A) (A) (A) (A) (A) (A) (A) (A) (A) (A) (A)
                 (A) (A) (A) (A) (A) (A) (A) (A) (A) (A) (A) (A)
                 (A) (A) (A) (A) (A) (A) (A) (A) (A) (A) (A) (A)
                 (A) (A) (A) (A) (A) (A) (A) (A) (A) (A) (A) (A)
                 (A) (A) (A) (A) (A) (A) (A) (A) (A) (A) (A) (A)
                 (A) (A) (A) (A) (A) (A) (A) (A) (A) (A) (A) (A)
                 (A) (A) (A) (A) (A) (A) (A) (A) (A) (A) (A) (A)
                 (A) (A) (A) (A) (A) (A) (A) (A) (A) (A) (A) (A)
                 (A) (A) (A) (A) (A) (A) (A) (A) (A) (A) (A) (A)
                 (A) (A) (A) (A) (A) (A) (A) (A) (A) (A) (A) (A)
                 (A) (A) (A) (A) (A) (A) (A) (A) (A) (A) (A) (A)
                 (A) (A) (A) (A) (A) (A) (A) (A) (A) (A) (A) (A)
                 (A) (A) (A) (A) (A) (A) (A) (A) (A) (A) (A) (A)
                 (A) (A) (A) (A) (A) (A) (A) (A) (A) (A) (A) (A)
                 (A) (A) (A) (A) (A) (A) (A) (A) (A) (A) (A) (A)
                 (A) (A) (A) (A) (A) (A) (A) (A) (A) (A) (A) (A)
                 (A) (A) (A) (A) (A) (A) (A) (A) (A) (A) (A) (A)
                 (A) (A) (A) (A) (A)
       Virtual   (A) (A) (A) (A) (A) (A) (A) (A) (A) (A) (A) (A)
                 (A) (A) (A) (A) (A) (A) (A) (A) (A) (A) (A) (A)
                 (A) (A) (A) (A) (A) (A) (A) (A) (A) (A) (A) (A)
                 (A) (A) (A) (A) (A) (A) (A) (A) (A) (A) (A) (A)
                 (A) (A) (A) (A) (A) (A) (A) (A) (A) (A) (A) (A)
                 (A) (A) (A) (A) (A) (A) (A) (A) (A) (A) (A) (A)
                 (A) (A) (A) (A) (A) (A) (A) (A) (A) (A) (A) (A)
                 (A) (A) (A) (A) (A) (A) (A) (A) (A) (A) (A) (A)
                 (A) (A) (A) (A) (A) (A) (A) (A) (A) (A) (A) (A)
                 (A) (A) (A) (A) (A) (A) (A) (A) (A) (A) (A) (A)
                 (A) (A) (A) (A) (A) (A) (A) (A) (A) (A) (A) (A)
                 (A) (A) (A) (A) (A) (A) (A) (A) (A) (A) (A) (A)
                 (A) (A) (A) (A) (A) (A) (A) (A) (A) (A) (A) (A)
                 (A) (A) (A) (A) (A) (A) (A) (A) (A) (A) (A) (A)
                 (A) (A) (A) (A) (A) (A) (A) (A) (A) (A) (A) (A)
                 (A) (A) (A) (A) (A) (A) (A) (A) (A) (A) (A) (A)
                 (A) (A) (A) (A) (A) (A) (A) (A) (A) (A) (A) (A)
                 (A) (A) (A) (A) (A) (A) (A) (A) (A) (A) (A) (A)
                 (A) (A) (A) (A) (A) (A) (A) (A) (A) (A) (A) (A)
                 (A) (A) (A) (A) (A) (A) (A) (A) (A) (A) (A) (A)
                 (A) (A) (A) (A) (A) (A) (A) (A) (A) (A) (A) (A)
                 (A) (A) (A) (A) (A) (A) (A) (A) (A) (A) (A) (A)
                 (A) (A) (A) (A) (A) (A) (A) (A) (A) (A) (A) (A)
                 (A) (A) (A) (A) (A) (A) (A) (A) (A) (A) (A) (A)
                 (A) (A) (A) (A) (A) (A) (A) (A) (A) (A) (A) (A)
                 (A) (A) (A) (A) (A) (A) (A) (A) (A) (A) (A) (A)
                 (A) (A) (A) (A) (A) (A) (A) (A) (A) (A) (A) (A)
                 (A) (A) (A) (A) (A) (A) (A) (A) (A) (A) (A) (A)
                 (A) (A) (A) (A) (A) (A) (A) (A) (A) (A) (A) (A)
                 (A) (A) (A) (A) (A) (A) (A) (A) (A) (A) (A) (A)
                 (A) (A) (A) (A) (A) (A) (A) (A) (A) (A) (A) (A)
                 (A) (A) (A) (A) (A) (A) (A) (A) (A) (A) (A) (A)
                 (A) (A) (A) (A) (A) (A) (A) (A) (A) (A) (A) (A)
                 (A) (A) (A) (A) (A) (A) (A) (A) (A) (A) (A) (A)
                 (A) (A) (A) (A) (A) (A) (A) (A) (A) (A) (A) (A)
                 (A) (A) (A) (A) (A) (A) (A) (A) (A) (A) (A) (A)
                 (A) (A) (A) (A) (A) (A) (A) (A) (A) (A) (A) (A)
                 (A) (A) (A) (A) (A) (A) (A) (A) (A) (A) (A) (A)
                 (A) (A) (A) (A) (A) (A) (A) (A) (A) (A) (A) (A)
                 (A) (A) (A) (A) (A) (A) (A) (A) (A) (A) (A) (A)
                 (A) (A) (A) (A) (A) (A) (A) (A) (A) (A) (A) (A)
                 (A) (A) (A) (A) (A) (A) (A) (A) (A) (A) (A) (A)
                 (A) (A) (A) (A) (A) (A) (A) (A) (A) (A) (A) (A)
                 (A) (A) (A) (A) (A) (A) (A) (A) (A) (A) (A) (A)
                 (A) (A) (A) (A) (A) (A) (A) (A) (A) (A) (A) (A)
                 (A) (A) (A) (A) (A) (A) (A) (A) (A) (A) (A) (A)
                 (A) (A) (A) (A) (A) (A) (A) (A) (A) (A) (A) (A)
                 (A) (A) (A) (A) (A) (A) (A) (A) (A) (A) (A) (A)
                 (A) (A) (A) (A) (A) (A) (A) (A) (A) (A) (A) (A)
                 (A) (A) (A) (A) (A) (A) (A) (A) (A) (A) (A) (A)
                 (A) (A) (A) (A) (A) (A) (A) (A) (A) (A) (A) (A)
                 (A) (A) (A) (A) (A) (A) (A) (A) (A) (A) (A) (A)
                 (A) (A) (A) (A) (A) (A) (A) (A) (A) (A) (A) (A)
                 (A) (A) (A) (A) (A) (A) (A) (A) (A) (A) (A) (A)
                 (A) (A) (A) (A) (A) (A) (A) (A) (A) (A) (A) (A)
                 (A) (A) (A) (A) (A) (A) (A) (A) (A) (A) (A) (A)
                 (A) (A) (A)
 The electronic state is 1-A.
 Alpha  occ. eigenvalues --  -24.83653 -24.83379 -24.83211 -19.19614 -19.19587
 Alpha  occ. eigenvalues --  -19.19446 -19.19404 -19.19358 -19.19038 -19.18885
 Alpha  occ. eigenvalues --  -14.45403 -14.44448 -14.42710 -10.51917 -10.34603
 Alpha  occ. eigenvalues --  -10.33043 -10.31987 -10.31907 -10.30365 -10.29875
 Alpha  occ. eigenvalues --  -10.29812 -10.29213 -10.28867 -10.28831 -10.28821
 Alpha  occ. eigenvalues --  -10.28713 -10.28651 -10.28535 -10.28353 -10.28179
 Alpha  occ. eigenvalues --  -10.27719 -10.26987 -10.26964 -10.25187 -10.24240
 Alpha  occ. eigenvalues --  -10.24089 -10.24068 -10.23353 -10.22635 -10.22281
 Alpha  occ. eigenvalues --  -10.22261 -10.22259 -10.22257 -10.22245 -10.22184
 Alpha  occ. eigenvalues --  -10.22126 -10.22077 -10.21150 -10.20956 -10.20944
 Alpha  occ. eigenvalues --   -6.79836  -6.78279  -6.78070  -3.60160  -2.02975
 Alpha  occ. eigenvalues --   -2.02082  -2.01653  -1.36274  -1.27807  -1.27240
 Alpha  occ. eigenvalues --   -1.05598  -1.05251  -1.05117  -1.04754  -1.00598
 Alpha  occ. eigenvalues --   -0.98710  -0.98341  -0.98209  -0.97845  -0.94437
 Alpha  occ. eigenvalues --   -0.86690  -0.83904  -0.83560  -0.82051  -0.79884
 Alpha  occ. eigenvalues --   -0.79773  -0.79625  -0.79211  -0.77790  -0.74300
 Alpha  occ. eigenvalues --   -0.74251  -0.74154  -0.74081  -0.72967  -0.71261
 Alpha  occ. eigenvalues --   -0.69890  -0.69821  -0.69720  -0.69024  -0.68870
 Alpha  occ. eigenvalues --   -0.67928  -0.67050  -0.66998  -0.66896  -0.65390
 Alpha  occ. eigenvalues --   -0.64441  -0.62297  -0.62052  -0.61592  -0.61359
 Alpha  occ. eigenvalues --   -0.60846  -0.60733  -0.60667  -0.58605  -0.57150
 Alpha  occ. eigenvalues --   -0.54203  -0.54109  -0.54035  -0.53931  -0.53736
 Alpha  occ. eigenvalues --   -0.53151  -0.52514  -0.52426  -0.52375  -0.50790
 Alpha  occ. eigenvalues --   -0.50438  -0.50235  -0.49645  -0.49576  -0.48969
 Alpha  occ. eigenvalues --   -0.48232  -0.47646  -0.47566  -0.46903  -0.46543
 Alpha  occ. eigenvalues --   -0.46365  -0.46321  -0.45948  -0.45763  -0.45602
 Alpha  occ. eigenvalues --   -0.45492  -0.45422  -0.45234  -0.44840  -0.44647
 Alpha  occ. eigenvalues --   -0.43909  -0.43820  -0.43772  -0.43646  -0.43619
 Alpha  occ. eigenvalues --   -0.43556  -0.42970  -0.42870  -0.42746  -0.42676
 Alpha  occ. eigenvalues --   -0.41722  -0.41151  -0.40681  -0.40543  -0.40390
 Alpha  occ. eigenvalues --   -0.40259  -0.39995  -0.39687  -0.39657  -0.39552
 Alpha  occ. eigenvalues --   -0.39465  -0.39280  -0.39240  -0.39183  -0.38829
 Alpha  occ. eigenvalues --   -0.38684  -0.38556  -0.38540  -0.38193  -0.38108
 Alpha  occ. eigenvalues --   -0.37031  -0.36965  -0.36937  -0.36834  -0.36501
 Alpha  occ. eigenvalues --   -0.36370  -0.36138  -0.35725  -0.35680  -0.35557
 Alpha  occ. eigenvalues --   -0.35472  -0.35343  -0.34689  -0.34502  -0.34327
 Alpha  occ. eigenvalues --   -0.34254  -0.34136  -0.34057  -0.33664  -0.33309
 Alpha  occ. eigenvalues --   -0.32995  -0.32460  -0.32220  -0.31844  -0.31707
 Alpha  occ. eigenvalues --   -0.31559  -0.30952  -0.30626  -0.30462  -0.29553
 Alpha  occ. eigenvalues --   -0.29459  -0.29157  -0.28894  -0.27409  -0.26316
 Alpha  occ. eigenvalues --   -0.26018  -0.25569  -0.25444  -0.24969  -0.24800
 Alpha  occ. eigenvalues --   -0.24105  -0.21034  -0.20676  -0.20399
 Alpha virt. eigenvalues --   -0.08154  -0.04771  -0.03220   0.00330   0.00898
 Alpha virt. eigenvalues --    0.03447   0.03861   0.05092   0.06273   0.06930
 Alpha virt. eigenvalues --    0.07604   0.07875   0.09037   0.09844   0.10129
 Alpha virt. eigenvalues --    0.10364   0.10396   0.10924   0.11579   0.12053
 Alpha virt. eigenvalues --    0.12459   0.12623   0.13041   0.13180   0.13363
 Alpha virt. eigenvalues --    0.13742   0.13751   0.14002   0.14103   0.14228
 Alpha virt. eigenvalues --    0.14387   0.14825   0.14921   0.15104   0.15480
 Alpha virt. eigenvalues --    0.15612   0.15764   0.15922   0.16123   0.16229
 Alpha virt. eigenvalues --    0.16248   0.16521   0.16725   0.17001   0.17401
 Alpha virt. eigenvalues --    0.17543   0.17719   0.17778   0.17971   0.18073
 Alpha virt. eigenvalues --    0.18222   0.18389   0.18506   0.18703   0.18935
 Alpha virt. eigenvalues --    0.19138   0.19260   0.19354   0.19582   0.19663
 Alpha virt. eigenvalues --    0.19768   0.20018   0.20390   0.20405   0.20601
 Alpha virt. eigenvalues --    0.21028   0.21136   0.21185   0.21345   0.21418
 Alpha virt. eigenvalues --    0.21715   0.22046   0.22214   0.22344   0.22764
 Alpha virt. eigenvalues --    0.23036   0.23301   0.23398   0.23540   0.23810
 Alpha virt. eigenvalues --    0.24084   0.24122   0.24313   0.24416   0.24693
 Alpha virt. eigenvalues --    0.24830   0.25439   0.25512   0.25638   0.25826
 Alpha virt. eigenvalues --    0.26007   0.26291   0.26589   0.26615   0.26780
 Alpha virt. eigenvalues --    0.27775   0.27828   0.28142   0.28351   0.28699
 Alpha virt. eigenvalues --    0.29074   0.29215   0.29586   0.29684   0.29903
 Alpha virt. eigenvalues --    0.30317   0.30530   0.31718   0.32076   0.32463
 Alpha virt. eigenvalues --    0.32742   0.33397   0.33698   0.34846   0.35427
 Alpha virt. eigenvalues --    0.35737   0.36104   0.36732   0.37361   0.37639
 Alpha virt. eigenvalues --    0.38673   0.39065   0.39510   0.39747   0.41012
 Alpha virt. eigenvalues --    0.42247   0.43001   0.43361   0.45367   0.46719
 Alpha virt. eigenvalues --    0.47171   0.48049   0.48751   0.49023   0.49310
 Alpha virt. eigenvalues --    0.49519   0.50756   0.50969   0.51066   0.51273
 Alpha virt. eigenvalues --    0.51722   0.51837   0.51914   0.52032   0.52302
 Alpha virt. eigenvalues --    0.52898   0.53428   0.53868   0.54054   0.54716
 Alpha virt. eigenvalues --    0.55196   0.55388   0.55520   0.55986   0.56181
 Alpha virt. eigenvalues --    0.56301   0.56566   0.57189   0.57342   0.57653
 Alpha virt. eigenvalues --    0.57809   0.57943   0.58240   0.58507   0.58772
 Alpha virt. eigenvalues --    0.59114   0.59165   0.59582   0.59679   0.59950
 Alpha virt. eigenvalues --    0.60264   0.60553   0.60651   0.61161   0.61736
 Alpha virt. eigenvalues --    0.61777   0.62313   0.62434   0.62928   0.63213
 Alpha virt. eigenvalues --    0.63500   0.63710   0.64131   0.64369   0.64859
 Alpha virt. eigenvalues --    0.65245   0.65336   0.65865   0.66152   0.66802
 Alpha virt. eigenvalues --    0.66881   0.67270   0.67723   0.67976   0.68102
 Alpha virt. eigenvalues --    0.68350   0.68964   0.69119   0.69284   0.69598
 Alpha virt. eigenvalues --    0.70188   0.70556   0.70956   0.71139   0.71418
 Alpha virt. eigenvalues --    0.71998   0.72366   0.72820   0.73310   0.73470
 Alpha virt. eigenvalues --    0.73883   0.74080   0.74170   0.74342   0.74721
 Alpha virt. eigenvalues --    0.75327   0.75659   0.75780   0.75955   0.76438
 Alpha virt. eigenvalues --    0.76621   0.77279   0.77299   0.77715   0.78008
 Alpha virt. eigenvalues --    0.78388   0.78649   0.78691   0.79429   0.79592
 Alpha virt. eigenvalues --    0.80079   0.80184   0.80840   0.80949   0.81700
 Alpha virt. eigenvalues --    0.81840   0.82579   0.82672   0.82781   0.83295
 Alpha virt. eigenvalues --    0.83414   0.83534   0.83734   0.84480   0.84830
 Alpha virt. eigenvalues --    0.85029   0.85108   0.85343   0.85482   0.85604
 Alpha virt. eigenvalues --    0.85837   0.86101   0.86482   0.86802   0.87301
 Alpha virt. eigenvalues --    0.87482   0.87737   0.87843   0.88031   0.88417
 Alpha virt. eigenvalues --    0.88613   0.89155   0.89412   0.89445   0.89808
 Alpha virt. eigenvalues --    0.89960   0.90152   0.90340   0.90565   0.90738
 Alpha virt. eigenvalues --    0.90953   0.91152   0.91217   0.91529   0.91885
 Alpha virt. eigenvalues --    0.92073   0.92228   0.92517   0.92639   0.92933
 Alpha virt. eigenvalues --    0.93212   0.93468   0.93688   0.94009   0.94304
 Alpha virt. eigenvalues --    0.94433   0.94801   0.95061   0.95482   0.95725
 Alpha virt. eigenvalues --    0.96046   0.96263   0.96439   0.96600   0.97221
 Alpha virt. eigenvalues --    0.97637   0.97832   0.98261   0.98538   0.99042
 Alpha virt. eigenvalues --    0.99142   0.99798   0.99909   1.00023   1.00594
 Alpha virt. eigenvalues --    1.01068   1.01869   1.02262   1.02377   1.02762
 Alpha virt. eigenvalues --    1.03331   1.03713   1.04588   1.04787   1.05766
 Alpha virt. eigenvalues --    1.05925   1.06411   1.06891   1.07222   1.07712
 Alpha virt. eigenvalues --    1.07824   1.08802   1.09197   1.09323   1.10077
 Alpha virt. eigenvalues --    1.10881   1.11032   1.11315   1.12091   1.13035
 Alpha virt. eigenvalues --    1.13261   1.14314   1.15268   1.15373   1.15654
 Alpha virt. eigenvalues --    1.16574   1.17338   1.17740   1.18842   1.19474
 Alpha virt. eigenvalues --    1.19860   1.20596   1.20821   1.21348   1.21636
 Alpha virt. eigenvalues --    1.21846   1.22344   1.22608   1.23702   1.23948
 Alpha virt. eigenvalues --    1.24627   1.24869   1.25817   1.26403   1.27467
 Alpha virt. eigenvalues --    1.27943   1.28259   1.29237   1.29425   1.30091
 Alpha virt. eigenvalues --    1.30579   1.32141   1.32832   1.34071   1.34203
 Alpha virt. eigenvalues --    1.34797   1.35112   1.35435   1.35603   1.36687
 Alpha virt. eigenvalues --    1.36757   1.37990   1.38160   1.38349   1.38873
 Alpha virt. eigenvalues --    1.39600   1.39643   1.40477   1.41002   1.41308
 Alpha virt. eigenvalues --    1.42233   1.42506   1.42786   1.43234   1.43589
 Alpha virt. eigenvalues --    1.44118   1.44449   1.44693   1.45184   1.45373
 Alpha virt. eigenvalues --    1.45993   1.46322   1.46903   1.47101   1.47152
 Alpha virt. eigenvalues --    1.48201   1.49134   1.50309   1.50550   1.51088
 Alpha virt. eigenvalues --    1.51821   1.51860   1.52500   1.53276   1.54264
 Alpha virt. eigenvalues --    1.54459   1.56192   1.56693   1.57293   1.57784
 Alpha virt. eigenvalues --    1.58134   1.58734   1.60802   1.61357   1.62061
 Alpha virt. eigenvalues --    1.62836   1.63620   1.63844   1.64960   1.65496
 Alpha virt. eigenvalues --    1.65975   1.66925   1.67283   1.68153   1.68452
 Alpha virt. eigenvalues --    1.69020   1.69437   1.69851   1.70072   1.70828
 Alpha virt. eigenvalues --    1.71085   1.71620   1.72357   1.72538   1.73429
 Alpha virt. eigenvalues --    1.74409   1.74650   1.75117   1.76566   1.76720
 Alpha virt. eigenvalues --    1.77724   1.78052   1.78205   1.78704   1.79862
 Alpha virt. eigenvalues --    1.80272   1.80339   1.80782   1.80997   1.81387
 Alpha virt. eigenvalues --    1.81961   1.82559   1.82934   1.83658   1.83945
 Alpha virt. eigenvalues --    1.84353   1.84959   1.85191   1.85347   1.86216
 Alpha virt. eigenvalues --    1.86557   1.86685   1.87315   1.87637   1.88001
 Alpha virt. eigenvalues --    1.88189   1.88679   1.89103   1.90584   1.90821
 Alpha virt. eigenvalues --    1.91371   1.91571   1.91649   1.91777   1.92022
 Alpha virt. eigenvalues --    1.92457   1.92676   1.93016   1.93114   1.93406
 Alpha virt. eigenvalues --    1.93572   1.93920   1.93969   1.94107   1.94584
 Alpha virt. eigenvalues --    1.94645   1.95303   1.95804   1.96064   1.96454
 Alpha virt. eigenvalues --    1.96846   1.97454   1.97865   1.98907   1.99262
 Alpha virt. eigenvalues --    1.99817   2.00437   2.00795   2.01095   2.01695
 Alpha virt. eigenvalues --    2.02010   2.02450   2.02871   2.03115   2.03486
 Alpha virt. eigenvalues --    2.03555   2.03854   2.04251   2.04525   2.05403
 Alpha virt. eigenvalues --    2.05583   2.06239   2.06614   2.06858   2.07624
 Alpha virt. eigenvalues --    2.07973   2.08019   2.08184   2.08610   2.08738
 Alpha virt. eigenvalues --    2.09145   2.09241   2.10058   2.10649   2.11109
 Alpha virt. eigenvalues --    2.11574   2.11738   2.12024   2.12702   2.13001
 Alpha virt. eigenvalues --    2.13189   2.13465   2.14291   2.14890   2.15149
 Alpha virt. eigenvalues --    2.15339   2.15575   2.15917   2.16334   2.16764
 Alpha virt. eigenvalues --    2.16966   2.17317   2.18155   2.18254   2.18622
 Alpha virt. eigenvalues --    2.19080   2.19548   2.19883   2.19985   2.20056
 Alpha virt. eigenvalues --    2.20249   2.20314   2.21071   2.21813   2.21985
 Alpha virt. eigenvalues --    2.22527   2.22741   2.23430   2.23545   2.24049
 Alpha virt. eigenvalues --    2.24417   2.25286   2.25835   2.26252   2.26565
 Alpha virt. eigenvalues --    2.26716   2.26798   2.27044   2.27501   2.28546
 Alpha virt. eigenvalues --    2.28675   2.29027   2.29748   2.30855   2.31250
 Alpha virt. eigenvalues --    2.31722   2.31927   2.32385   2.32965   2.33348
 Alpha virt. eigenvalues --    2.33660   2.34072   2.34772   2.35411   2.36168
 Alpha virt. eigenvalues --    2.36408   2.36951   2.37386   2.38180   2.39379
 Alpha virt. eigenvalues --    2.39839   2.40014   2.42433   2.44032   2.44883
 Alpha virt. eigenvalues --    2.45510   2.45927   2.47084   2.47640   2.48736
 Alpha virt. eigenvalues --    2.48919   2.49054   2.49492   2.50196   2.50445
 Alpha virt. eigenvalues --    2.50848   2.51418   2.51912   2.53516   2.54281
 Alpha virt. eigenvalues --    2.58043   2.58509   2.59860   2.60315   2.60798
 Alpha virt. eigenvalues --    2.60870   2.61249   2.61395   2.62002   2.64917
 Alpha virt. eigenvalues --    2.65237   2.65664   2.65817   2.66700   2.67210
 Alpha virt. eigenvalues --    2.67681   2.68739   2.70065   2.70449   2.76151
 Alpha virt. eigenvalues --    2.77373   2.77504   2.78386   2.78595   2.78695
 Alpha virt. eigenvalues --    2.79549   2.80267   2.80976   2.81214   2.81511
 Alpha virt. eigenvalues --    2.81618   2.82011   2.82317   2.82777   2.83065
 Alpha virt. eigenvalues --    2.84356   2.85600   2.86262   2.88988   2.90166
 Alpha virt. eigenvalues --    2.90981   2.91381   2.92731   2.95062   2.95876
 Alpha virt. eigenvalues --    2.97170   2.97452   2.97772   2.99791   3.05105
 Alpha virt. eigenvalues --    3.05574   3.06190   3.06403   3.06754   3.07338
 Alpha virt. eigenvalues --    3.10036   3.11142   3.12087   3.12359   3.12612
 Alpha virt. eigenvalues --    3.20367   3.25304   3.31292   3.44781  11.32737
          Condensed to atoms (all electrons):
 Mulliken charges:
               1
     1  C    0.305397
     2  C    0.046236
     3  C   -0.086271
     4  C   -0.161397
     5  C   -0.167593
     6  C    0.290651
     7  C    0.035002
     8  C   -0.171522
     9  C   -0.141745
    10  C   -0.147993
    11  H    0.221278
    12  H    0.197491
    13  H    0.181370
    14  H    0.232895
    15  H    0.184298
    16  H    0.179048
    17  N   -0.485126
    18  N   -0.494962
    19  Ir  -0.038831
    20  O   -0.514645
    21  O   -0.539514
    22  O   -0.524919
    23  B    0.468275
    24  B    0.542107
    25  B    0.409524
    26  O   -0.530991
    27  O   -0.530591
    28  C    0.299181
    29  C    0.291063
    30  C    0.293163
    31  C    0.302657
    32  C    0.304713
    33  C    0.294212
    34  O   -0.517316
    35  C   -0.511153
    36  H    0.148364
    37  H    0.167144
    38  H    0.171012
    39  C   -0.503554
    40  H    0.157878
    41  H    0.141475
    42  H    0.190973
    43  C   -0.512310
    44  H    0.165617
    45  H    0.148966
    46  H    0.179152
    47  C   -0.510518
    48  H    0.178234
    49  H    0.147671
    50  H    0.163748
    51  C   -0.510235
    52  H    0.150324
    53  H    0.178082
    54  H    0.155720
    55  C   -0.510096
    56  H    0.158373
    57  H    0.179541
    58  H    0.147791
    59  C   -0.510281
    60  H    0.168830
    61  H    0.146770
    62  H    0.164829
    63  C   -0.502684
    64  H    0.139490
    65  H    0.192097
    66  H    0.155016
    67  C   -0.506568
    68  H    0.146628
    69  H    0.160390
    70  H    0.180271
    71  C   -0.499585
    72  H    0.154262
    73  H    0.156306
    74  H    0.153020
    75  C   -0.511147
    76  H    0.148255
    77  H    0.166699
    78  H    0.166455
    79  C   -0.507958
    80  H    0.140257
    81  H    0.196149
    82  H    0.155462
    83  H    0.218288
    84  C    0.590192
    85  O   -0.532732
    86  C   -0.408844
    87  H    0.175578
    88  H    0.152958
    89  C   -0.386384
    90  H    0.187527
    91  H    0.209610
    92  N   -0.389972
    93  C   -0.382952
    94  H    0.172175
    95  H    0.226270
    96  H    0.162492
    97  C   -0.258923
    98  H    0.130740
    99  H    0.163201
   100  C   -0.280008
   101  H    0.143224
   102  H    0.133195
   103  C   -0.280387
   104  H    0.137128
   105  H    0.151575
   106  C   -0.498626
   107  H    0.165305
   108  H    0.161740
   109  H    0.160365
   110  C    0.965685
   111  F   -0.305131
   112  F   -0.312380
   113  F   -0.304333
   114  H    0.183110
 Sum of Mulliken charges =  -0.00000
 Mulliken charges with hydrogens summed into heavy atoms:
               1
     1  C    0.305397
     2  C    0.267514
     3  C   -0.086271
     4  C    0.036094
     5  C    0.013777
     6  C    0.290651
     7  C    0.267897
     8  C    0.011587
     9  C    0.042553
    10  C    0.031055
    17  N   -0.485126
    18  N   -0.494962
    19  Ir  -0.038831
    20  O   -0.514645
    21  O   -0.539514
    22  O   -0.524919
    23  B    0.468275
    24  B    0.542107
    25  B    0.409524
    26  O   -0.530991
    27  O   -0.530591
    28  C    0.299181
    29  C    0.291063
    30  C    0.293163
    31  C    0.302657
    32  C    0.304713
    33  C    0.294212
    34  O   -0.517316
    35  C   -0.024632
    39  C   -0.013227
    43  C   -0.018574
    47  C   -0.020866
    51  C   -0.026109
    55  C   -0.024391
    59  C   -0.029852
    63  C   -0.016080
    67  C   -0.019280
    71  C   -0.035997
    75  C   -0.029738
    79  C   -0.016089
    84  C    0.590192
    85  O   -0.532732
    86  C   -0.080307
    89  C    0.229041
    92  N   -0.389972
    93  C    0.177986
    97  C    0.035017
   100  C   -0.003589
   103  C    0.008317
   106  C   -0.011217
   110  C    0.965685
   111  F   -0.305131
   112  F   -0.312380
   113  F   -0.304333
 APT charges:
               1
     1  C    0.280124
     2  C    0.095201
     3  C   -0.211610
     4  C    0.087908
     5  C   -0.190821
     6  C    0.137699
     7  C    0.016607
     8  C   -0.039603
     9  C    0.118244
    10  C   -0.159632
    11  H    0.098311
    12  H    0.061640
    13  H    0.052580
    14  H    0.138232
    15  H    0.031043
    16  H    0.051557
    17  N   -0.176013
    18  N   -0.183975
    19  Ir  -0.614205
    20  O   -0.999248
    21  O   -1.036522
    22  O   -0.977281
    23  B    1.280433
    24  B    1.311155
    25  B    1.230769
    26  O   -1.024288
    27  O   -0.985293
    28  C    0.515001
    29  C    0.494347
    30  C    0.492455
    31  C    0.487115
    32  C    0.524529
    33  C    0.499959
    34  O   -1.009050
    35  C   -0.013670
    36  H   -0.017924
    37  H    0.001262
    38  H    0.002099
    39  C   -0.050524
    40  H    0.000693
    41  H   -0.030319
    42  H    0.042808
    43  C   -0.037713
    44  H   -0.004199
    45  H   -0.020568
    46  H    0.005046
    47  C   -0.016304
    48  H    0.008713
    49  H   -0.017953
    50  H   -0.005984
    51  C   -0.037354
    52  H   -0.025068
    53  H    0.004580
    54  H   -0.005837
    55  C   -0.012183
    56  H   -0.008577
    57  H    0.007444
    58  H   -0.022538
    59  C   -0.008254
    60  H    0.000381
    61  H   -0.023136
    62  H    0.000986
    63  C   -0.052806
    64  H   -0.033953
    65  H    0.040189
    66  H    0.005374
    67  C   -0.004933
    68  H   -0.021939
    69  H   -0.009566
    70  H    0.008762
    71  C   -0.020452
    72  H   -0.009426
    73  H   -0.020990
    74  H   -0.013580
    75  C   -0.011384
    76  H   -0.019473
    77  H    0.000204
    78  H    0.000299
    79  C   -0.051880
    80  H   -0.032621
    81  H    0.047706
    82  H   -0.000728
    83  H   -0.064062
    84  C    0.885588
    85  O   -0.739037
    86  C   -0.023648
    87  H   -0.013956
    88  H   -0.001813
    89  C    0.281618
    90  H   -0.053988
    91  H    0.048047
    92  N   -0.690551
    93  C    0.232136
    94  H   -0.046646
    95  H    0.088658
    96  H    0.004980
    97  C    0.103679
    98  H   -0.020714
    99  H   -0.030853
   100  C    0.102358
   101  H   -0.050815
   102  H   -0.045371
   103  C    0.127177
   104  H   -0.054275
   105  H   -0.049231
   106  C    0.057441
   107  H   -0.037750
   108  H   -0.018148
   109  H   -0.015191
   110  C    1.783569
   111  F   -0.518951
   112  F   -0.584077
   113  F   -0.603355
   114  H    0.035102
 Sum of APT charges =  -0.00000
 APT charges with hydrogens summed into heavy atoms:
               1
     1  C    0.280124
     2  C    0.193512
     3  C   -0.211610
     4  C    0.149547
     5  C   -0.138241
     6  C    0.137699
     7  C    0.154840
     8  C   -0.004502
     9  C    0.149288
    10  C   -0.108075
    17  N   -0.176013
    18  N   -0.183975
    19  Ir  -0.614205
    20  O   -0.999248
    21  O   -1.036522
    22  O   -0.977281
    23  B    1.280433
    24  B    1.311155
    25  B    1.230769
    26  O   -1.024288
    27  O   -0.985293
    28  C    0.515001
    29  C    0.494347
    30  C    0.492455
    31  C    0.487115
    32  C    0.524529
    33  C    0.499959
    34  O   -1.009050
    35  C   -0.028234
    39  C   -0.037343
    43  C   -0.057434
    47  C   -0.031528
    51  C   -0.063678
    55  C   -0.035854
    59  C   -0.030023
    63  C   -0.041195
    67  C   -0.027676
    71  C   -0.064449
    75  C   -0.030354
    79  C   -0.037523
    84  C    0.885588
    85  O   -0.739037
    86  C   -0.039416
    89  C    0.211614
    92  N   -0.690551
    93  C    0.279129
    97  C    0.052113
   100  C    0.006173
   103  C    0.023672
   106  C   -0.013648
   110  C    1.783569
   111  F   -0.518951
   112  F   -0.584077
   113  F   -0.603355
 Electronic spatial extent (au):  <R**2>=          34616.3908
 Charge=             -0.0000 electrons
 Dipole moment (field-independent basis, Debye):
    X=             -2.9986    Y=              2.7267    Z=              1.1863  Tot=              4.2230
 Quadrupole moment (field-independent basis, Debye-Ang):
   XX=           -326.3432   YY=           -320.4557   ZZ=           -324.6732
   XY=             -3.6614   XZ=             -4.4227   YZ=             10.0919
 Traceless Quadrupole moment (field-independent basis, Debye-Ang):
   XX=             -2.5192   YY=              3.3684   ZZ=             -0.8492
   XY=             -3.6614   XZ=             -4.4227   YZ=             10.0919
 Octapole moment (field-independent basis, Debye-Ang**2):
  XXX=             40.4025  YYY=            117.1474  ZZZ=              0.1236  XYY=             57.1486
  XXY=             29.3125  XXZ=             18.1664  XZZ=             -8.6085  YZZ=             -3.8623
  YYZ=             32.1547  XYZ=            -38.2024
 Hexadecapole moment (field-independent basis, Debye-Ang**3):
 XXXX=         -26343.1805 YYYY=         -10052.8638 ZZZZ=          -8235.5775 XXXY=            214.9308
 XXXZ=           -172.0979 YYYX=            195.4659 YYYZ=            248.3664 ZZZX=             69.1164
 ZZZY=           -114.6351 XXYY=          -6327.4126 XXZZ=          -5677.6742 YYZZ=          -3082.6914
 XXYZ=              8.8132 YYXZ=           -125.9651 ZZXY=            -18.0083
 N-N= 9.181633129124D+03 E-N=-2.444262206800D+04  KE= 2.527506133713D+03
  Exact polarizability:     585.714       2.980     519.504     -32.072      22.641     422.834
 Approx polarizability:     773.453      14.220     792.084     -60.708      38.256     623.200
   1 Symmetry operations used in ECPInt.
 ECPInt:  NShTT=   57970 NPrTT=  353525 LenC2=   41880 LenP2D=  128157.
 LDataN:  DoStor=T MaxTD1= 8 Len=  415
 Calling FoFJK, ICntrl=    100127 FMM=F ISym2X=0 I1Cent= 0 IOpClX= 0 NMat=1 NMatS=1 NMatT=0.
 Defaulting to unpruned grid for atomic number  77.
 Defaulting to unpruned grid for atomic number  77.
 Defaulting to unpruned grid for atomic number  77.
 Defaulting to unpruned grid for atomic number  77.
 Defaulting to unpruned grid for atomic number  77.
 Defaulting to unpruned grid for atomic number  77.
 Defaulting to unpruned grid for atomic number  77.
 Defaulting to unpruned grid for atomic number  77.
 Defaulting to unpruned grid for atomic number  77.
 Defaulting to unpruned grid for atomic number  77.
 Defaulting to unpruned grid for atomic number  77.
 Defaulting to unpruned grid for atomic number  77.
 Defaulting to unpruned grid for atomic number  77.
 Defaulting to unpruned grid for atomic number  77.
 Defaulting to unpruned grid for atomic number  77.
 Defaulting to unpruned grid for atomic number  77.
 Full mass-weighted force constant matrix:
 Low frequencies ---   -1.8692    0.0002    0.0009    0.0011    3.8784    6.0713
 Low frequencies ---   12.5080   16.9273   22.2432
 Diagonal vibrational polarizability:
       94.1943674      71.5834718     144.0831662
 Harmonic frequencies (cm**-1), IR intensities (KM/Mole), Raman scattering
 activities (A**4/AMU), depolarization ratios for plane and unpolarized
 incident light, reduced masses (AMU), force constants (mDyne/A),
 and normal coordinates:
                      1                      2                      3
                      A                      A                      A
 Frequencies --     12.3671                16.7826                22.1623
 Red. masses --      5.0035                 5.0432                 4.6405
 Frc consts  --      0.0005                 0.0008                 0.0013
 IR Inten    --      0.3538                 0.0087                 0.3202
  Atom AN      X      Y      Z        X      Y      Z        X      Y      Z
     1   6    -0.01  -0.04   0.02     0.01   0.01  -0.02    -0.01   0.00  -0.03
     2   6    -0.01  -0.02  -0.05    -0.00   0.01  -0.02    -0.01  -0.01   0.01
     3   6    -0.00  -0.04  -0.03     0.02   0.00   0.04    -0.02   0.01  -0.03
     4   6     0.00  -0.06   0.01     0.03   0.00   0.07    -0.03   0.02  -0.06
     5   6     0.00  -0.06   0.04     0.03   0.01   0.04    -0.03   0.02  -0.06
     6   6    -0.01  -0.04   0.04    -0.00   0.02  -0.05    -0.02   0.01  -0.05
     7   6    -0.03  -0.02   0.03    -0.01   0.02  -0.07    -0.01   0.00  -0.05
     8   6    -0.02  -0.03   0.09    -0.02   0.03  -0.10    -0.03   0.01  -0.10
     9   6    -0.01  -0.05   0.13    -0.02   0.02  -0.11    -0.04   0.02  -0.13
    10   6    -0.01  -0.05   0.10    -0.01   0.02  -0.08    -0.03   0.01  -0.11
    11   1    -0.02  -0.01  -0.08    -0.02   0.01  -0.04     0.00  -0.02   0.04
    12   1     0.01  -0.07   0.03     0.05  -0.01   0.11    -0.04   0.03  -0.09
    13   1     0.01  -0.07   0.08     0.05   0.00   0.06    -0.03   0.03  -0.09
    14   1    -0.03  -0.00   0.00    -0.01   0.02  -0.06    -0.01  -0.00  -0.02
    15   1    -0.01  -0.06   0.18    -0.03   0.03  -0.13    -0.05   0.02  -0.18
    16   1    -0.00  -0.06   0.13    -0.01   0.02  -0.08    -0.04   0.02  -0.14
    17   7    -0.02  -0.02  -0.02    -0.01   0.02  -0.04    -0.00  -0.01   0.01
    18   7    -0.02  -0.02   0.01    -0.00   0.02  -0.05    -0.01  -0.00  -0.02
    19  77    -0.02  -0.00  -0.02    -0.00   0.01  -0.03     0.01  -0.02   0.02
    20   8    -0.03   0.04   0.01    -0.05  -0.02   0.00     0.03   0.00   0.01
    21   8    -0.03   0.02  -0.04     0.01  -0.02   0.05     0.00  -0.02   0.07
    22   8     0.00   0.00   0.01    -0.01   0.01  -0.04     0.06  -0.00   0.02
    23   5    -0.02   0.00  -0.02     0.01   0.00   0.01     0.00   0.00   0.03
    24   5    -0.02   0.02  -0.00    -0.04  -0.01  -0.02     0.03  -0.01   0.01
    25   5    -0.00  -0.01  -0.01     0.00   0.01  -0.04     0.01  -0.02   0.03
    26   8     0.01  -0.03  -0.01     0.03   0.02  -0.04    -0.03  -0.03   0.03
    27   8    -0.03   0.03   0.00    -0.06  -0.00  -0.04     0.04  -0.03   0.01
    28   6    -0.03   0.05   0.01    -0.09  -0.02  -0.03     0.05  -0.04  -0.00
    29   6    -0.03   0.05   0.02    -0.08  -0.03   0.00     0.05  -0.01  -0.00
    30   6     0.02  -0.01   0.03     0.00   0.01  -0.03     0.04   0.00   0.01
    31   6     0.03  -0.03   0.01     0.03   0.02  -0.05    -0.01  -0.03   0.03
    32   6    -0.03   0.02  -0.04     0.03  -0.01   0.08    -0.01   0.02   0.07
    33   6    -0.01   0.01  -0.00     0.03  -0.01   0.06    -0.01   0.04  -0.00
    34   8    -0.01  -0.01   0.00     0.02   0.01   0.02    -0.00   0.04  -0.01
    35   6    -0.04   0.07   0.02    -0.09  -0.04   0.02     0.04   0.00  -0.00
    36   1    -0.04   0.08   0.03    -0.11  -0.05   0.02     0.06  -0.00  -0.01
    37   1    -0.04   0.07   0.03    -0.08  -0.05   0.04     0.04   0.02  -0.00
    38   1    -0.05   0.07   0.01    -0.09  -0.04   0.02     0.03  -0.01   0.01
    39   6    -0.02   0.04   0.04    -0.07  -0.03   0.01     0.07   0.01  -0.02
    40   1    -0.01   0.04   0.04    -0.06  -0.04   0.02     0.06   0.03  -0.02
    41   1    -0.02   0.05   0.05    -0.10  -0.04   0.01     0.09   0.01  -0.03
    42   1    -0.01   0.03   0.04    -0.06  -0.02  -0.01     0.07   0.00  -0.02
    43   6    -0.05   0.06  -0.00    -0.10  -0.02  -0.03     0.04  -0.06   0.02
    44   1    -0.05   0.06  -0.01    -0.10  -0.01  -0.05     0.04  -0.08   0.02
    45   1    -0.05   0.08   0.01    -0.12  -0.03  -0.02     0.05  -0.07   0.01
    46   1    -0.05   0.06  -0.01    -0.08  -0.02  -0.02     0.02  -0.05   0.03
    47   6    -0.03   0.05   0.03    -0.11  -0.02  -0.04     0.07  -0.05  -0.03
    48   1    -0.02   0.04   0.04    -0.11  -0.01  -0.04     0.08  -0.04  -0.04
    49   1    -0.03   0.07   0.04    -0.13  -0.03  -0.03     0.08  -0.05  -0.03
    50   1    -0.03   0.05   0.02    -0.12  -0.01  -0.06     0.08  -0.07  -0.02
    51   6    -0.03  -0.01  -0.06     0.07   0.02   0.10    -0.03   0.07   0.11
    52   1    -0.03  -0.02  -0.06     0.08   0.02   0.12    -0.04   0.10   0.11
    53   1    -0.02  -0.03  -0.05     0.08   0.04   0.07    -0.03   0.10   0.10
    54   1    -0.04  -0.01  -0.08     0.07   0.01   0.11    -0.03   0.05   0.16
    55   6    -0.04   0.04  -0.04     0.01  -0.04   0.12     0.00  -0.02   0.08
    56   1    -0.05   0.05  -0.07     0.02  -0.05   0.14    -0.00  -0.03   0.13
    57   1    -0.04   0.07  -0.03    -0.01  -0.07   0.11     0.01  -0.06   0.05
    58   1    -0.04   0.04  -0.04     0.03  -0.04   0.15    -0.01   0.01   0.08
    59   6    -0.00  -0.01   0.01     0.05   0.02   0.07    -0.02   0.11  -0.02
    60   1     0.00  -0.04  -0.01     0.08   0.04   0.07    -0.03   0.14   0.01
    61   1    -0.01  -0.00   0.00     0.06   0.01   0.11    -0.02   0.10  -0.00
    62   1     0.01  -0.02   0.03     0.05   0.02   0.06    -0.03   0.12  -0.07
    63   6    -0.02   0.04   0.02    -0.00  -0.03   0.06     0.01   0.00  -0.05
    64   1    -0.02   0.05   0.02    -0.00  -0.05   0.09     0.01   0.01  -0.04
    65   1    -0.02   0.05   0.02    -0.03  -0.05   0.05     0.02  -0.05  -0.04
    66   1    -0.01   0.03   0.04    -0.01  -0.03   0.04     0.02   0.02  -0.10
    67   6     0.04  -0.05   0.02     0.05   0.03  -0.03    -0.06  -0.02   0.01
    68   1     0.05  -0.05   0.03     0.06   0.03  -0.03    -0.05  -0.02   0.01
    69   1     0.05  -0.06   0.00     0.07   0.04  -0.04    -0.09  -0.04   0.03
    70   1     0.04  -0.04   0.02     0.06   0.03  -0.01    -0.07  -0.00  -0.03
    71   6     0.03  -0.04   0.00     0.03   0.03  -0.07    -0.00  -0.06   0.08
    72   1     0.04  -0.06  -0.01     0.04   0.04  -0.08    -0.04  -0.08   0.10
    73   1     0.04  -0.05   0.01     0.03   0.03  -0.08     0.01  -0.06   0.09
    74   1     0.02  -0.04  -0.01     0.01   0.03  -0.08     0.03  -0.06   0.10
    75   6     0.02  -0.01   0.05    -0.01   0.01  -0.05     0.09  -0.00   0.02
    76   1     0.03  -0.02   0.06     0.01   0.02  -0.05     0.07  -0.00   0.01
    77   1     0.01   0.00   0.06    -0.02   0.00  -0.04     0.12   0.02  -0.00
    78   1     0.02  -0.01   0.04    -0.01   0.01  -0.07     0.10  -0.03   0.05
    79   6     0.02  -0.01   0.04     0.01   0.01  -0.00     0.03   0.04  -0.04
    80   1     0.03  -0.02   0.05     0.02   0.01   0.00     0.02   0.04  -0.05
    81   1     0.01  -0.01   0.03     0.02   0.01   0.01    -0.01   0.04  -0.06
    82   1     0.01   0.01   0.05    -0.01   0.00   0.01     0.06   0.06  -0.06
    83   1     0.06  -0.09  -0.07    -0.00   0.02  -0.05    -0.02  -0.08   0.00
    84   6     0.07  -0.00  -0.02     0.01  -0.01  -0.02    -0.03  -0.00  -0.04
    85   8     0.11  -0.00  -0.01     0.00  -0.00  -0.03    -0.01   0.02  -0.07
    86   6     0.05   0.03   0.00     0.02  -0.03   0.02    -0.04   0.02  -0.03
    87   1     0.01   0.04   0.01    -0.00  -0.04   0.03    -0.06   0.03  -0.02
    88   1     0.04   0.02  -0.01     0.04  -0.02   0.03    -0.06   0.01  -0.03
    89   6     0.07  -0.06  -0.04    -0.01   0.01  -0.05    -0.01  -0.07  -0.02
    90   1     0.07  -0.05  -0.04    -0.01   0.01  -0.05     0.00  -0.10  -0.02
    91   1     0.10  -0.06  -0.03    -0.01   0.02  -0.05     0.00  -0.05  -0.04
    92   7     0.05  -0.03  -0.04     0.00   0.00  -0.03    -0.02  -0.05  -0.00
    93   6     0.01  -0.03  -0.04     0.01   0.00  -0.03    -0.04  -0.07   0.03
    94   1    -0.00  -0.02  -0.04     0.02   0.00  -0.03    -0.06  -0.10   0.04
    95   1     0.00  -0.06  -0.05     0.01   0.00  -0.02    -0.05  -0.08   0.03
    96   1    -0.01  -0.02  -0.04     0.01   0.00  -0.04    -0.04  -0.05   0.06
    97   6     0.08   0.05   0.04     0.03  -0.03   0.05    -0.02   0.04  -0.00
    98   1     0.12   0.03   0.04     0.05  -0.01   0.03     0.01   0.04  -0.01
    99   1     0.09   0.06   0.07     0.01  -0.04   0.04    -0.02   0.04  -0.00
   100   6     0.06   0.08   0.07     0.04  -0.04   0.09    -0.03   0.06   0.03
   101   1    -0.00   0.13   0.07     0.00  -0.04   0.10    -0.09   0.09   0.04
   102   1     0.06   0.05   0.01     0.06  -0.03   0.08    -0.03   0.04  -0.01
   103   6     0.12   0.09   0.15     0.06  -0.04   0.13     0.02   0.06   0.11
   104   1     0.18   0.03   0.15     0.10  -0.03   0.12     0.08   0.02   0.10
   105   1     0.12   0.12   0.21     0.04  -0.04   0.14     0.01   0.08   0.15
   106   6     0.08   0.12   0.17     0.07  -0.05   0.18    -0.00   0.08   0.14
   107   1     0.13   0.13   0.23     0.09  -0.05   0.22     0.04   0.09   0.20
   108   1     0.02   0.19   0.17     0.03  -0.06   0.20    -0.06   0.12   0.16
   109   1     0.08   0.09   0.10     0.10  -0.04   0.18     0.00   0.06   0.10
   110   6    -0.01  -0.03  -0.07     0.03  -0.00   0.07    -0.03   0.02  -0.05
   111   9    -0.00  -0.03  -0.07     0.03  -0.01   0.10    -0.04   0.00  -0.02
   112   9    -0.03  -0.05  -0.09     0.02   0.02   0.08    -0.08   0.03  -0.08
   113   9     0.02  -0.01  -0.09     0.03  -0.03   0.06     0.00   0.03  -0.09
   114   1    -0.02  -0.03   0.11    -0.03   0.03  -0.12    -0.03   0.01  -0.12
                      4                      5                      6
[...]
 ,-0.00013986,0.00009725,-0.00011805,0.00022918,0.00041962,0.00054942,0
 .00004890,-0.00012419,0.00029596,0.00022921,-0.00016291,0.00008019,-0.
 00053104,-0.00092838,0.00023261,0.00033314,0.00071258,-0.00034422,-0.0
 0017649,0.00011682,0.00010055,-0.00000293,0.00008023,0.00009035,-0.000
 04885,-0.00002211,0.00004919,-0.00008979,-0.00028523,-0.00015974,-0.00
 027801,-0.00010641,0.00013345,0.00005209,-0.00011639,0.00009136,0.0000
 4943,-0.00001200,-0.00036890,0.00000952,0.00019465,-0.00002401,0.00000
 535,0.00001571,0.00000937,0.00000181,-0.00000402,-0.00002756,-0.000003
 33,0.00000709,0.00001346,0.00000477,0.00000075,-0.00002284,0.00000130,
 0.00001818,-0.00003264,-0.00001113,0.00001089,0.00001063,0.00000501,-0
 .00000057,0.00001987,-0.00000165,-0.00003204,0.00003752,-0.00001053,-0
 .00001744,-0.00002632,0.00001048,0.00003958,-0.00002063,0.00001156,-0.
 00001544,0.00000140,-0.00001298,0.00000539,0.00005657,0.00000331,-0.00
 004503,0.00004745,-0.00001616,-0.00000955,-0.00004814,-0.00001042,-0.0
 0001970,-0.00002713,0.00001032,0.00008536,-0.00001947,-0.00002132,0.00
 000969,-0.00001683,-0.00000930,0.00001693,0.00000452,0.00001216,-0.000
 00699,0.00000598,0.00000406,-0.00000783,-0.00001856,-0.00000932,0.0000
 1572,0.00000728,0.00000005,-0.00000642,0.00001099,0.00000012,0.0000055
 9,-0.00002203,-0.00000406,0.00000308,-0.00001443,-0.00000051,-0.000005
 71,0.00000663,-0.00000974,0.00000659,-0.00001304,-0.00000419,0.0000078
 3,-0.00000442,0.00001217,0.00000134,-0.00001768,-0.00002248,-0.0000002
 5,-0.00001982,-0.00000202,-0.00000413,0.00001909,0.00000999,0.00000881
 ,0.00000497,0.00000493,-0.00000561,0.00003997,0.00005348,0.00000907,-0
 .00001550,0.00000896,0.00001270,0.00000579,-0.00002534,0.00004254,0.00
 002599,0.00000812,-0.00002421,0.00014031,0.00010707,-0.00004060,-0.000
 02460,-0.00007634,0.00015825,-0.00000072,0.00002677,0.00001167,-0.0001
 1625,0.00002020,-0.00013728,0.00003218,0.00002142,0.00003950,-0.000034
 37,0.00002478,0.00003288,0.00004195,-0.00001663,0.00000745,-0.00001509
 ,-0.00001012,-0.00006826,0.00000092,0.00000396,0.00006919,-0.00002373,
 0.00001988,0.00001880,-0.00000104,-0.00001736,-0.00002419,0.00003448,-
 0.00001436,0.00000810,0.00017237,-0.00005696,0.00000132,-0.00173952,-0
 .00097224,-0.00059377,0.00083107,0.00088292,0.00085328,0.00111601,-0.0
 0011333,0.00058770,0.00003684,-0.00012660,0.00014113,-0.00095264,0.000
 97331,-0.00104045,-0.00049240,-0.00014574,-0.00005139,0.00012612,0.000
 00356,0.00000855,-0.00004155,0.00008080,-0.00000393,0.00080128,0.00038
 964,0.00019708,-0.00012296,-0.00056033,0.00014529,0.00002042,0.0000230
 6,0.00006262,-0.00005813,0.00013111,-0.00010128,-0.00045383,-0.0003025
 2,0.00012894,-0.00018131,0.00004966,-0.00044584,-0.00005137,0.00010708
 ,0.00020717,-0.00006774,0.00025136,0.00007523,0.00008687,-0.00075768,0
 .00073218,0.00009615,0.00000615,0.00009890,0.00000538,0.00023839,-0.00
 082715,0.00012127,0.00015042,-0.00039830,-0.00002166,0.00005575,0.0001
 6600,-0.00015387,0.00014166,0.00007115,-0.00001177,0.00002237,0.000112
 12,-0.00011103,0.00005918,0.00003103,0.00006484,-0.00003063,0.00002771
 ,0.00006358,-0.00000373,-0.00012762,-0.10014387,-0.01155247,-0.1840009
 7,-0.02112652,0.01480955,0.00780868,-0.01859334,0.01617996,-0.08171504
 ,0.16513201,-0.01097620,0.26866181,0.00006687,0.00012130,-0.00043120,0
 .00000770,-0.00001685,-0.00002101,-0.00000144,-0.00003518,-0.00001636,
 0.00005470,0.00001317,-0.00002355,-0.00007979,0.00001491,0.00006721,-0
 .00133027,0.00096404,0.00045027,0.01138747,0.01172816,-0.00123847,-0.1
 3934694,-0.12976326,0.00859604,-0.01001248,-0.02652853,-0.00037642,-0.
 00444099,0.00099783,0.00317451,-0.00000438,-0.00000245,0.00000091,-0.0
 0000243,0.00000170,-0.00000145,0.00006977,0.00000977,-0.00002409,-0.00
 003322,-0.00032780,-0.00090631,0.00094456,0.00037838,-0.00116883,-0.00
 046440,-0.00130371,0.00005604,-0.00000722,-0.00004796,0.00001866,0.000
 61546,0.00369863,0.00276375,0.00019678,-0.00013996,-0.00013230,0.00000
 115,-0.00001441,0.00001256,-0.00002783,-0.00011580,-0.00003321,0.00000
 733,-0.00000209,-0.00000967,0.00008174,0.00009876,0.00001144,-0.000008
 92,0.00001390,-0.00004483,-0.00004501,0.00002308,0.00008271,-0.0000002
 9,0.00000846,-0.00000198,0.00000284,-0.00001200,0.00001652,-0.00000318
 ,0.00000390,-0.00000923,-0.00000254,0.00001126,-0.00000569,0.00000374,
 0.00000588,0.00000829,0.00000009,0.00000561,0.00000325,-0.00001317,-0.
 00000599,0.00002177,-0.00000193,0.00002177,0.00000807,-0.00000737,-0.0
 0004654,-0.00002681,0.00000104,-0.00000007,0.00000136,-0.00000034,-0.0
 0000226,0.00000157,-0.00000114,0.00000203,-0.00000042,0.00000110,0.000
 00017,-0.00000249,0.00000088,-0.00000053,-0.00000086,-0.00000026,0.000
 00125,-0.00000012,0.00000016,-0.00000167,0.00000118,-0.00000057,0.0000
 0019,0.00000040,-0.00000115,0.00000080,0.00000178,-0.00000106,-0.00000
 016,-0.00000141,0.00000181,-0.00000018,0.00000114,0.00000144,-0.000001
 20,-0.00000065,-0.00000163,-0.00000024,0.00000125,-0.00000013,0.000000
 27,-0.00000034,0.00000156,-0.00000035,0.00000085,-0.00000097,0.0000000
 2,-0.00000077,-0.00001845,0.00004146,0.00000665,0.00000753,-0.00000776
 ,-0.00000480,0.00000151,-0.00001500,-0.00000799,0.00000934,-0.00002214
 ,0.00001399,-0.00000338,0.00003866,0.00000480,-0.00001061,-0.00002253,
 -0.00000029,-0.00000198,-0.00000153,-0.00000099,0.00000815,-0.00001133
 ,-0.00000806,-0.00000034,-0.00000901,-0.00000030,-0.00000062,0.0000023
 4,0.00000114,-0.00000138,0.00000178,0.00000146,0.00000236,-0.00000480,
 -0.00000269,0.00000058,-0.00000683,-0.00000303,-0.00000156,0.00000184,
 0.00000107,0.00000135,0.00000500,-0.00000210,0.00000095,-0.00000557,-0
 .00000137,0.00000213,0.00000142,-0.00000051,-0.00000012,-0.00000085,0.
 00000028,-0.00000128,0.00000038,-0.00000044,0.00000012,0.00000009,0.00
 000088,-0.00000193,0.00000062,0.00000266,-0.00000052,0.00000068,0.0000
 0007,0.00000120,-0.00000091,-0.00000057,-0.00000006,0.00000064,-0.0000
 0182,-0.00000186,-0.00000138,0.00000027,0.00000054,-0.00000022,-0.0000
 0113,0.00000004,0.00000092,0.00000016,-0.00000021,0.,0.00000028,-0.000
 00026,0.00000017,-0.00000129,0.00000009,-0.00000154,-0.00000127,0.0000
 0070,0.00000197,0.00000291,-0.00000045,0.00000148,-0.00000034,-0.00000
 210,0.00000893,-0.00000412,-0.00003650,0.00006552,0.00006170,-0.000013
 48,-0.00003160,-0.00011736,0.00000298,-0.00000901,0.00000376,-0.000000
 31,-0.00000156,-0.00000453,-0.00000067,0.00000127,0.00000371,-0.000010
 28,-0.00002760,0.00000296,0.00000415,-0.00000232,-0.00001043,-0.000013
 34,-0.00000413,0.00002515,0.00003321,-0.00000100,-0.00002998,0.0000060
 7,0.00000538,0.00000674,-0.00000142,-0.00000093,-0.00000476,-0.0000001
 0,-0.00000204,0.00000020,0.00000255,0.00000285,0.00000122,0.00000563,0
 .00000074,0.00001628,0.00000473,0.00000153,-0.00000674,-0.00000235,0.0
 0000173,-0.00000248,0.00000236,-0.00000105,-0.00000218,-0.00000330,-0.
 00000220,-0.00000288,-0.00000016,0.00000341,-0.00000026,0.00000303,-0.
 00000286,0.00000368,0.00000043,-0.00000060,-0.00000302,-0.00000115,0.0
 0000197,-0.00000116,0.,0.00000119,-0.00000020,-0.00000222,-0.00000003,
 0.00000144,-0.00000044,-0.00000119,-0.00000147,0.00000050,0.00000067,-
 0.00000030,0.00004633,0.00006324,0.00002230,-0.00000045,-0.00002575,-0
 .00000818,-0.00001654,-0.00001976,0.00000649,-0.00001720,-0.00001363,-
 0.00001240,0.14241129,-0.00006303,-0.00005999,0.00024707,-0.00000526,0
 .00003969,0.00000975,-0.00001879,-0.00002751,0.00000930,-0.00002694,0.
 00000128,0.00001746,0.00000051,-0.00005929,-0.00002732,0.00177273,0.00
 019796,-0.00043889,-0.01817920,-0.01548717,0.00265306,-0.12960167,-0.2
 5927414,0.00172025,0.00290594,0.00502863,-0.00047379,0.00065843,0.0016
 2598,-0.00097630,0.00000170,0.00000206,-0.00000362,-0.00000432,-0.0000
 0629,0.00000268,-0.00000145,0.00001271,-0.00001077,0.00019944,0.000592
 15,0.00049500,-0.00017896,0.00041337,0.00066432,0.00027456,0.00018069,
 -0.00007518,-0.00000741,-0.00009704,-0.00003380,0.00229112,-0.00441966
 ,-0.00282247,-0.00029428,0.00035555,0.00049444,0.00012462,-0.00002645,
 0.00009749,0.00028475,0.00027087,0.00000230,0.00006306,-0.00018724,-0.
 00007862,-0.00043270,-0.00022460,0.00003820,-0.00014579,0.00008350,-0.
 00025131,0.00001362,0.00017814,0.00008772,0.00002126,-0.00013985,-0.00
 015175,0.00004233,-0.00006326,0.00010936,-0.00004171,0.00001447,-0.000
 05758,-0.00001387,0.00002810,-0.00003614,-0.00004016,0.00002429,0.0000
 4556,-0.00000353,0.00005047,0.00001197,-0.00005455,-0.00007700,0.00005
 653,-0.00005221,-0.00006143,-0.00003273,0.00017922,0.00010240,-0.00001
 697,0.00000355,-0.00001024,-0.00000032,0.00000344,0.00000175,0.0000039
 0,0.00000539,-0.00000178,-0.00000159,-0.00000442,0.00000262,0.00000464
 ,-0.00000028,-0.00000591,0.00001000,0.00000076,-0.00000009,-0.00000250
 ,0.00000260,-0.00000518,0.00000194,-0.00000160,0.00000836,-0.00000282,
 0.00000225,-0.00000459,0.00001565,0.00000123,0.00000261,-0.00000512,0.
 00000370,-0.00000225,0.00000899,-0.00000494,-0.00000128,-0.00000949,0.
 00000406,0.00000071,0.00000875,-0.00000102,0.00000397,-0.00000078,0.00
 000234,-0.00000468,0.00000467,-0.00000114,0.00000001,-0.00000221,0.000
 02660,-0.00006817,-0.00003205,-0.00001268,0.00002443,-0.00000032,0.000
 00019,0.00000125,0.00000924,0.00000415,0.00004598,0.00000086,0.0000133
 4,-0.00004171,-0.00002155,0.00001595,0.00004071,0.00000186,0.00000039,
 -0.00000505,-0.00000405,-0.00000164,0.00001871,0.00001525,0.00001114,0
 .00001030,0.00000458,-0.00000300,-0.00000574,-0.00000537,0.00001130,-0
 .00000014,-0.00000485,-0.00000617,0.00000761,0.00000089,0.00001119,0.0
 0002008,0.00000598,0.00001311,-0.00000193,0.00000047,-0.00001000,-0.00
 001079,-0.00000031,-0.00000645,0.00001011,0.00000250,-0.00000353,-0.00
 001233,-0.00000110,0.00000321,-0.00000419,-0.00000681,-0.00000192,0.00
 000192,-0.00000220,0.00000220,0.00000128,0.00000106,0.00000372,-0.0000
 1300,-0.00000075,-0.00000082,0.00000266,-0.00000027,-0.00000376,-0.000
 00736,-0.00000315,0.00000367,0.00000366,-0.00000182,0.00000803,-0.0000
 0417,-0.00001102,0.00000021,-0.00000850,-0.00000285,0.00000106,-0.0000
 0161,0.00000371,0.00000046,0.00000324,-0.00000013,0.00000446,-0.000006
 32,-0.00000729,0.00000734,-0.00000271,-0.00000483,-0.00000523,-0.00000
 072,-0.00000121,0.00000044,-0.00000153,0.00000380,-0.00001982,0.000008
 07,0.00000428,0.00001545,0.00000790,0.00001326,-0.00001352,0.00000203,
 -0.00002705,0.00000003,-0.00000643,0.00000323,-0.00000087,0.00000002,-
 0.00000249,0.00000030,0.00000374,0.00000188,0.00002250,-0.00000705,-0.
 00001011,-0.00001527,-0.00000722,-0.00002816,-0.00000223,-0.00002585,0
 .00002713,-0.00000843,0.00000766,-0.00001574,0.00000520,0.00000369,0.0
 0000725,-0.00000426,0.00000162,-0.00000533,0.00000462,-0.00000323,0.00
 000692,0.00000342,0.00000149,0.00000107,0.00000262,0.00000051,0.000004
 56,0.00000204,-0.00000282,-0.00000329,-0.00000193,0.00000163,-0.000001
 65,0.00000207,-0.00000128,0.00000185,-0.00000185,-0.00000053,-0.000002
 04,0.00000020,0.00000299,-0.00000060,0.00000175,-0.00000178,0.00000017
 ,0.00000027,-0.00000068,-0.00000122,-0.00000091,0.00000122,-0.00000037
 ,-0.00000010,0.00000105,0.00000080,-0.00000212,0.00000023,0.00000108,-
 0.00000012,-0.00000068,-0.00000120,0.00000069,0.00000013,-0.00000029,0
 .00003641,0.00006670,0.00000034,-0.00000383,-0.00001912,-0.00000127,-0
 .00001609,-0.00002094,0.00001220,-0.00002128,-0.00001692,-0.00001486,0
 .14024475,0.27103250,-0.00048639,0.00021061,-0.00142457,0.00006353,0.0
 0007707,-0.00001819,-0.00007991,0.00002809,0.00002350,0.00000032,-0.00
 009404,-0.00003892,0.00008543,0.00008511,0.00005814,0.00050842,-0.0001
 2745,-0.00046645,-0.00561414,-0.00591027,0.00148856,0.00852827,0.00204
 105,-0.03795640,0.00390719,0.00756657,0.00282887,0.00325780,-0.0012307
 7,0.00649969,-0.00000260,-0.00000182,-0.00000188,-0.00000558,0.0000051
 8,-0.00001392,0.00001547,-0.00001653,0.00005885,-0.00081206,0.00067494
 ,-0.00282177,-0.00123563,0.00043132,-0.00342751,0.00019130,0.00038913,
 0.00012118,0.00000041,-0.00013978,0.00006346,0.00254083,-0.00295573,0.
 00698801,-0.00011080,0.00032498,-0.00006948,0.00000527,0.00001180,-0.0
 0001437,0.00005117,0.00004538,-0.00001110,0.00001692,-0.00004294,-0.00
 006351,-0.00006645,-0.00002925,0.00000169,-0.00000277,-0.00003694,-0.0
 0004527,0.00001247,-0.00012652,0.00018639,-0.00000246,0.00003600,-0.00
 001898,-0.00000838,0.00000084,-0.00002701,-0.00000011,0.00001210,0.000
 02112,0.00000253,0.00000065,0.00001193,-0.00001023,0.00000161,0.000023
 52,0.00000795,-0.00001233,0.00000197,0.00000284,-0.00002694,0.00009898
 ,-0.00001069,-0.00001480,-0.00001209,0.00001558,0.00002372,-0.00001463
 ,-0.00000469,0.00000439,0.00000263,0.00000007,0.00000025,-0.00000090,0
 .00000185,-0.00000120,0.00000007,0.00000026,-0.00000247,-0.00000082,-0
 .00000262,0.00000010,-0.00000330,0.00000298,-0.00000077,0.00000027,0.0
 0000027,0.00000085,-0.00000015,-0.00000065,-0.00000134,0.00000073,0.00
 000685,0.00000034,-0.00000808,0.00000147,0.00000087,0.00000075,-0.0000
 0149,0.00000195,-0.00000128,-0.00000277,-0.00000021,0.00000693,0.00000
 037,-0.00000211,-0.00000575,0.00000004,-0.00000315,-0.00000083,-0.0000
 0058,0.00000138,-0.00000022,0.00000093,0.00000113,0.00000108,0.0000025
 2,-0.00004995,-0.00004169,-0.00000968,0.00001679,0.00000237,-0.0000031
 1,-0.00000782,-0.00000606,0.00001253,0.00003172,0.00002580,0.00000559,
 0.00000342,-0.00001829,0.00000412,-0.00000359,0.00002072,-0.00001031,0
 .00001339,-0.00000797,0.00000259,-0.00000035,-0.00000123,0.00000297,0.
 00000427,0.00000191,-0.00000240,-0.00000289,-0.00000794,0.00000286,-0.
 00000169,0.00000007,-0.00000258,0.00000517,-0.00000058,0.00000252,0.00
 001325,0.00000514,-0.00000075,-0.00000028,0.00000019,-0.00000118,-0.00
 000123,-0.00000163,-0.00000326,0.00000474,-0.00000177,-0.00000216,0.00
 000110,0.00000005,0.00000015,0.00000098,0.00000006,-0.00000148,-0.0000
 0033,-0.00000250,0.00000162,-0.00000106,0.00000068,0.00000002,0.000001
 61,0.00000158,-0.00000133,-0.00000004,-0.00000230,0.00000016,0.0000008
 0,0.00000025,0.00000205,0.00000048,-0.00000008,0.00000280,-0.00000213,
 -0.00000722,0.00000016,-0.00000323,-0.00000028,-0.00000123,0.00000130,
 -0.00000029,0.00000069,0.00000043,0.00000064,0.00000154,-0.00000281,-0
 .00000185,0.00000192,-0.00000066,-0.00000102,0.00000033,-0.00000093,-0
 .00000048,-0.00000145,0.00000058,-0.00000047,-0.00002070,0.00002150,0.
 00000108,0.00000517,-0.00003000,-0.00000336,0.00000198,0.00004429,-0.0
 0000015,0.00000637,0.00000098,0.00000494,0.00000047,-0.00000005,-0.000
 00026,0.00000026,0.00000157,0.00000072,0.00000505,-0.00002400,-0.00000
 212,-0.00000901,-0.00000970,-0.00002155,-0.00000219,-0.00001770,0.0000
 4363,-0.00001058,0.00003115,-0.00000568,0.00000416,-0.00000738,-0.0000
 0250,-0.00000157,0.00000101,0.00000093,0.00000207,-0.00000268,0.000003
 30,0.00000343,0.00000336,-0.00000009,0.00000032,-0.00000106,0.00000091
 ,-0.00000167,-0.00000267,-0.00000062,-0.00000238,0.00000101,-0.0000009
 5,-0.00000111,-0.00000241,0.00000052,0.00000061,0.00000022,-0.00000011
 ,0.00000038,0.00000191,-0.00000092,0.00000016,0.00000111,0.00000185,-0
 .00000049,-0.00000045,-0.00000045,-0.00000062,0.00000065,-0.00000035,0
 .00000014,-0.00000107,-0.00000032,0.00000168,-0.00000015,-0.00000039,-
 0.00000013,0.00000008,-0.00000004,-0.00000036,0.00000111,0.,0.00001401
 ,-0.00002066,0.00005525,-0.00000374,0.00000153,-0.00000825,-0.00000757
 ,-0.00000471,-0.00000522,0.00000569,0.00000962,-0.00000259,-0.01076384
 ,-0.00121751,0.02796604\\0.00000423,0.00000212,0.00000020,-0.00000121,
 -0.00000639,0.00000301,0.00000314,0.00000104,-0.00000015,-0.00000682,-
 0.00000685,-0.00000005,0.00000098,0.00000445,0.00000212,-0.00000587,-0
 .00000185,0.00000189,0.00000462,-0.00000166,-0.00000161,-0.00000836,0.
 00000499,0.00000294,0.00000349,-0.00000410,0.00000027,0.00000713,0.000
 00490,-0.00000106,-0.00000034,0.00000166,-0.00000299,0.00000357,-0.000
 00034,-0.00000153,-0.00000071,-0.00000187,-0.00000109,-0.00000076,-0.0
 0000049,0.00000221,-0.00000168,-0.00000071,0.00000155,-0.00000601,-0.0
 0000220,0.00000217,0.00000050,-0.00000135,-0.00000491,-0.00000254,-0.0
 0000076,0.00000265,0.00000815,-0.00000028,-0.00000489,0.00000330,-0.00
 000256,0.00000143,-0.00000300,-0.00000008,0.00000181,-0.00000195,-0.00
 000183,-0.00000142,-0.00000111,0.00000013,0.00000551,-0.00000110,0.000
 00490,-0.00000242,-0.00000247,0.00000055,0.00000165,0.00000305,-0.0000
 0201,0.00000265,-0.00000487,-0.00000423,0.00000127,0.00000047,-0.00000
 414,0.00000002,-0.00000513,0.00000090,-0.00000140,0.00000427,0.0000018
 5,0.00000392,-0.00000314,0.00000011,-0.00000483,0.00000505,0.00000523,
 -0.00000126,0.00000143,0.00000217,-0.00000028,-0.00000225,-0.00000122,
 -0.00000213,0.00000403,0.00000136,0.00000234,-0.00000080,-0.00000031,-
 0.00000057,-0.00000081,-0.00000022,-0.00000017,-0.00000065,-0.00000140
 ,0.,0.00000610,-0.00000228,-0.00000003,-0.00000260,0.00000017,0.000000
 25,-0.00000026,0.00000110,-0.00000095,0.00000022,0.00000070,-0.0000013
 9,-0.00000094,-0.00000117,0.00000155,-0.00000003,-0.00000187,-0.000000
 59,0.00000001,-0.00000093,-0.00000066,0.00000087,0.00000157,-0.0000000
 7,0.00000769,-0.00000263,-0.00000439,-0.00000026,0.00000102,0.00000175
 ,-0.00000039,-0.00000074,-0.00000137,-0.00000548,-0.00000061,0.0000010
 6,0.00000142,0.00000163,0.00000605,0.00000006,0.00000110,0.00000041,-0
 .00000154,0.00000039,-0.00000053,-0.00000074,0.00000025,0.00000095,-0.
 00000667,-0.00000506,-0.00000243,-0.00000011,0.00000140,0.00000246,-0.
 00000021,0.00000116,0.00000107,0.00000121,0.00000163,0.00000101,0.0000
 0081,-0.00000167,-0.00000226,0.00000001,0.00000099,0.00000135,0.000001
 30,0.00000207,0.00000088,-0.00000103,0.00000432,0.00000157,0.00000439,
 -0.00000188,0.00000399,-0.00000423,0.00000015,0.00000068,0.00000140,0.
 00000114,-0.00000267,-0.00000023,0.00000399,0.00000174,0.00000065,-0.0
 0000453,0.00000155,0.00000026,0.00000438,0.00000050,0.00000063,0.00000
 232,-0.00000076,0.00000151,0.00000301,-0.00000083,0.00000139,0.0000009
 3,-0.00000423,0.00000076,-0.00000023,-0.00000111,0.00000086,0.00000298
 ,0.00000066,0.00000063,-0.00000075,0.00000166,-0.00000498,-0.00000180,
 -0.00000393,0.00000093,0.00000189,-0.00000034,0.00000186,0.00000047,0.
 00000076,0.00000283,0.00000006,-0.00000130,-0.00000043,0.00000388,-0.0
 0000457,0.00000182,-0.00000013,-0.00000237,-0.00000003,0.00000067,-0.0
 0000037,0.00000081,-0.00000034,0.00000208,-0.00000650,0.00000485,0.000
 00878,-0.00000110,-0.00000344,0.00000647,0.00000239,-0.00000034,-0.000
 00094,-0.00000640,-0.00000234,0.00000050,-0.00000032,0.00000037,-0.000
 00190,0.00000035,0.00000212,0.00000027,0.00000018,0.00000202,-0.000003
 70,-0.00000043,-0.00000074,-0.00000060,0.00000034,-0.00000399,-0.00000
 127,-0.00000032,0.00001011,-0.00000111,0.00000011,-0.00001345,0.000002
 68,-0.00000050,-0.00000013,-0.00000090,0.00000475,0.00001450,-0.000004
 93,0.00000040,0.00000070,-0.00000052,0.00000570,0.00000041,-0.00000313
 ,0.00000036,0.00000058,0.00000165,-0.00000012,-0.00000375,0.00000212,-
 0.00000300,-0.00000251,0.00000105,-0.00000003,-0.00000069,-0.00000154,
 -0.00000067,0.00000096,-0.00000164,-0.00000217,-0.00000058,-0.00000201
 ,0.00000002,-0.00000169,0.00000031,0.00000018,-0.00000213,0.00000040,0
 .00000304,-0.00000501,0.00000126,-0.00000142,-0.00000051,-0.00000068,0
 .00000053,-0.00000065,0.00000046,-0.00000087,0.00000169,-0.00000287,0.
 00000843,-0.00000297,0.00000224,-0.00000598,0.00000428,-0.00000002,0.0
 0000009,-0.00000200,-0.00000091,-0.00000209,-0.00000163,-0.00000460,-0
 .00000103,-0.00000226,0.00000135\\\@
 The archive entry for this job was punched.


 MAN IS A SINGULAR CREATURE.  HE HAS A SET OF GIFTS
 WHICH MAKE HIM UNIQUE AMONG THE ANIMALS: SO THAT, 
 UNLIKE THEM, HE IS NOT A FIGURE IN THE LANDSCAPE --
 HE IS A SHAPER OF THE LANDSCAPE.

                       -- JACOB BRONOWSKI
 Job cpu time:       1 days 15 hours 26 minutes 49.4 seconds.
 Elapsed time:       0 days  2 hours 31 minutes  9.3 seconds.
 File lengths (MBytes):  RWF=  10098 Int=      0 D2E=      0 Chk=     55 Scr=      1
 Normal termination of Gaussian 16 at Sat Dec  7 21:20:13 2024.
