/mnt/lustre/scratch/nvme/SLURM/9663520/usccqdma.1cmNSrKK5H
OMP_STACKSIZE=0m
GAUSS_PDEF=16
GAUSS_MDEF=65536MB
GAUSS_RDEF=SCF=Direct
 Entering Gaussian System, Link 0=g16.exe
 Initial command:
 /opt/cesga/2020/software/Core/g16/c1/l1.exe "/mnt/lustre/scratch/nvme/SLURM/9663520/usccqdma.1cmNSrKK5H/Gau-1063915.inp" -scrdir="/mnt/lustre/scratch/nvme/SLURM/9663520/usccqdma.1cmNSrKK5H/"
 Default is to use a total of  16 processors:
                               16 via shared-memory
                                1 via Linda
 Entering Link 1 = /opt/cesga/2020/software/Core/g16/c1/l1.exe PID=   1063944.
  
 Copyright (c) 1988-2019, Gaussian, Inc.  All Rights Reserved.
  
 This is part of the Gaussian(R) 16 program.  It is based on
 the Gaussian(R) 09 system (copyright 2009, Gaussian, Inc.),
 the Gaussian(R) 03 system (copyright 2003, Gaussian, Inc.),
 the Gaussian(R) 98 system (copyright 1998, Gaussian, Inc.),
 the Gaussian(R) 94 system (copyright 1995, Gaussian, Inc.),
 the Gaussian 92(TM) system (copyright 1992, Gaussian, Inc.),
 the Gaussian 90(TM) system (copyright 1990, Gaussian, Inc.),
 the Gaussian 88(TM) system (copyright 1988, Gaussian, Inc.),
 the Gaussian 86(TM) system (copyright 1986, Carnegie Mellon
 University), and the Gaussian 82(TM) system (copyright 1983,
 Carnegie Mellon University). Gaussian is a federally registered
 trademark of Gaussian, Inc.
  
 This software contains proprietary and confidential information,
 including trade secrets, belonging to Gaussian, Inc.
  
 This software is provided under written license and may be
 used, copied, transmitted, or stored only in accord with that
 written license.
  
 The following legend is applicable only to US Government
 contracts under FAR:
  
                    RESTRICTED RIGHTS LEGEND
  
 Use, reproduction and disclosure by the US Government is
 subject to restrictions as set forth in subparagraphs (a)
 and (c) of the Commercial Computer Software - Restricted
 Rights clause in FAR 52.227-19.
  
 Gaussian, Inc.
 340 Quinnipiac St., Bldg. 40, Wallingford CT 06492
  
  
 ---------------------------------------------------------------
 Warning -- This program may not be used in any manner that
 competes with the business of Gaussian, Inc. or will provide
 assistance to any competitor of Gaussian, Inc.  The licensee
 of this program is prohibited from giving any competitor of
 Gaussian, Inc. access to this program.  By using this program,
 the user acknowledges that Gaussian, Inc. is engaged in the
 business of creating and licensing software in the field of
 computational chemistry and represents and warrants to the
 licensee that it is not a competitor of Gaussian, Inc. and that
 it will not use this program in any manner prohibited above.
 ---------------------------------------------------------------
  

 Cite this work as:
 Gaussian 16, Revision C.01,
 M. J. Frisch, G. W. Trucks, H. B. Schlegel, G. E. Scuseria, 
 M. A. Robb, J. R. Cheeseman, G. Scalmani, V. Barone, 
 G. A. Petersson, H. Nakatsuji, X. Li, M. Caricato, A. V. Marenich, 
 J. Bloino, B. G. Janesko, R. Gomperts, B. Mennucci, H. P. Hratchian, 
 J. V. Ortiz, A. F. Izmaylov, J. L. Sonnenberg, D. Williams-Young, 
 F. Ding, F. Lipparini, F. Egidi, J. Goings, B. Peng, A. Petrone, 
 T. Henderson, D. Ranasinghe, V. G. Zakrzewski, J. Gao, N. Rega, 
 G. Zheng, W. Liang, M. Hada, M. Ehara, K. Toyota, R. Fukuda, 
 J. Hasegawa, M. Ishida, T. Nakajima, Y. Honda, O. Kitao, H. Nakai, 
 T. Vreven, K. Throssell, J. A. Montgomery, Jr., J. E. Peralta, 
 F. Ogliaro, M. J. Bearpark, J. J. Heyd, E. N. Brothers, K. N. Kudin, 
 V. N. Staroverov, T. A. Keith, R. Kobayashi, J. Normand, 
 K. Raghavachari, A. P. Rendell, J. C. Burant, S. S. Iyengar, 
 J. Tomasi, M. Cossi, J. M. Millam, M. Klene, C. Adamo, R. Cammi, 
 J. W. Ochterski, R. L. Martin, K. Morokuma, O. Farkas, 
 J. B. Foresman, and D. J. Fox, Gaussian, Inc., Wallingford CT, 2019.
 
 ******************************************
 Gaussian 16:  ES64L-G16RevC.01  3-Jul-2019
                 7-Dec-2024 
 ******************************************
 Default route: SCF=Direct
 ----------------------------------------------------
 # m06/genecp scf=tight int=ultrafine 5d freq=noraman
 ----------------------------------------------------
 1/10=4,30=1,38=1/1,3;
 2/12=2,17=6,18=5,40=1/2;
 3/5=7,8=1,11=2,16=1,17=8,25=1,30=1,71=2,74=-54,75=-5,140=1/1,2,3;
 4//1;
 5/5=2,32=2,38=5,98=1/2;
 8/6=4,10=90,11=11/1;
 11/6=1,8=1,9=11,15=111,16=1/1,2,10;
 10/6=1/2;
 6/7=2,8=2,9=2,10=2,28=1/1;
 7/8=1,10=1,25=1/1,2,3,16;
 1/10=4,30=1/3;
 99//99;
 ------
 OPT-TS
 ------
 Symbolic Z-matrix:
 Charge =  0 Multiplicity = 1
 C                    -2.99673   1.74973  -0.28284 
 H                    -3.36149   0.72313  -0.18234 
 C                    -3.85577   2.84293  -0.34108 
 C                    -3.31741   4.11686  -0.45742 
 H                    -3.96853   4.98568  -0.51586 
 C                    -1.93752   4.25991  -0.49215 
 C                     1.06217   4.38433  -0.28547 
 C                     2.44851   4.34391  -0.23275 
 H                     3.02955   5.25891  -0.14841 
 C                     3.08262   3.10888  -0.27321 
 C                     2.31085   1.95908  -0.37653 
 H                     2.75792   0.96225  -0.37874 
 C                     0.34823   3.19179  -0.39904 
 C                    -1.12999   3.1272   -0.41624 
 C                    -3.29563  -2.66975   0.44154 
 C                    -2.42784  -3.55507  -0.49698 
 C                    -3.02358  -2.93229   1.91716 
 H                    -1.94489  -2.90909   2.12173 
 H                    -3.43451  -3.89757   2.24361 
 H                    -3.49773  -2.13794   2.50896 
 C                    -4.78591  -2.71373   0.17113 
 H                    -5.31064  -2.05331   0.87418 
 H                    -5.17785  -3.73196   0.30863 
 H                    -5.02599  -2.38291  -0.84553 
 C                    -2.12086  -4.94314   0.02987 
 H                    -1.49837  -5.47999  -0.69857 
 H                    -3.04229  -5.52338   0.18453 
 H                    -1.56684  -4.89853   0.97409 
 C                    -2.98721  -3.64912  -1.91125 
 H                    -3.23364  -2.6546   -2.3053 
 H                    -3.88482  -4.28081  -1.95989 
 H                    -2.21981  -4.08516  -2.56318 
 C                     2.14299  -2.75627  -2.41977 
 C                     3.17613  -2.21935  -1.3891 
 C                     1.5206   -4.082    -1.99758 
 H                     1.13922  -4.03115  -0.96957 
 H                     2.23106  -4.91554  -2.08586 
 H                     0.66135  -4.28369  -2.65026 
 C                     2.65764  -2.85211  -3.84178 
 H                     1.8635   -3.23325  -4.49624 
 H                     3.5102   -3.54415  -3.90442 
 H                     2.97011  -1.87501  -4.227 
 C                     3.97219  -3.2871   -0.6651 
 H                     4.68472  -2.81718   0.0264 
 H                     4.5457   -3.89974  -1.37574 
 H                     3.31815  -3.94561  -0.08199 
 C                     4.12101  -1.17229  -1.96615 
 H                     3.56772  -0.39662  -2.51418 
 H                     4.86622  -1.61187  -2.64281 
 H                     4.65742  -0.68808  -1.13678 
 B                    -1.47416  -1.48087  -0.29912 
 B                     1.13772  -1.20004  -1.08887 
 N                    -1.67108   1.89043  -0.32668 
 N                     0.98207   2.00355  -0.45711 
 O                    -2.79962  -1.35212   0.1492 
 O                    -1.20726  -2.81441  -0.57266 
 O                     1.10827  -1.76571  -2.35829 
 O                     2.33316  -1.54256  -0.4462 
 Ir                   -0.24119   0.12042  -0.45937 
 B                     0.50273  -0.483     1.28503 
 O                     0.25982  -1.65397   1.98358 
 O                     1.35221   0.35553   2.00319 
 C                     0.79969  -1.49639   3.3045 
 C                     1.89306  -0.4055    3.09537 
 C                    -0.33859  -1.03089   4.20391 
 C                     1.31785  -2.83954   3.7771 
 C                     2.10583   0.51864   4.27814 
 C                     3.2308   -0.9711    2.63666 
 H                    -0.73506  -0.06288   3.87021 
 H                    -0.02349  -0.94006   5.25222 
 H                    -1.15481  -1.76278   4.15416 
 H                     0.47896  -3.54035   3.88397 
 H                     1.81277  -2.74966   4.75497 
 H                     2.02577  -3.26999   3.06025 
 H                     2.8888    1.24947   4.03716 
 H                     2.43333  -0.04721   5.1623 
 H                     1.19485   1.07113   4.53356 
 H                     3.09898  -1.66154   1.79614 
 H                     3.75868  -1.48144   3.45403 
 H                     3.85773  -0.13885   2.2866 
 H                    -1.49998   5.25026  -0.58613 
 H                     0.54829   5.33996  -0.22176 
 C                    -5.33353   2.59613  -0.30912 
 F                    -5.67126   1.83603   0.73439 
 F                    -5.73489   1.95639  -1.41097 
 F                    -6.02188   3.73864  -0.228 
 C                     4.57214   2.95809  -0.23089 
 F                     5.02472   2.40396  -1.36059 
 F                     4.94977   2.16179   0.77314 
 F                     5.18681   4.13378  -0.07692 
 

 GradGradGradGradGradGradGradGradGradGradGradGradGradGradGradGradGradGrad
 Berny optimization.
 Initialization pass.
 Trust Radius=3.00D-01 FncErr=1.00D-07 GrdErr=1.00D-07 EigMax=2.50D+02 EigMin=1.00D-04
 Number of steps in this run=      2 maximum allowed number of steps=      2.
 GradGradGradGradGradGradGradGradGradGradGradGradGradGradGradGradGradGrad

 Stoichiometry    C30H42B3F6IrN2O6
 Framework group  C1[X(C30H42B3F6IrN2O6)]
 Deg. of freedom   264
 Full point group                 C1      NOp   1
 Largest Abelian subgroup         C1      NOp   1
 Largest concise Abelian subgroup C1      NOp   1
                         Standard orientation:                         
 ---------------------------------------------------------------------
 Center     Atomic      Atomic             Coordinates (Angstroms)
 Number     Number       Type             X           Y           Z
 ---------------------------------------------------------------------
      1          6           0       -2.996728    1.749731   -0.282840
      2          1           0       -3.361489    0.723131   -0.182340
      3          6           0       -3.855768    2.842931   -0.341080
      4          6           0       -3.317407    4.116861   -0.457420
      5          1           0       -3.968527    4.985681   -0.515860
      6          6           0       -1.937517    4.259911   -0.492150
      7          6           0        1.062173    4.384330   -0.285470
      8          6           0        2.448513    4.343909   -0.232750
      9          1           0        3.029553    5.258909   -0.148410
     10          6           0        3.082622    3.108879   -0.273210
     11          6           0        2.310852    1.959079   -0.376530
     12          1           0        2.757921    0.962249   -0.378740
     13          6           0        0.348232    3.191790   -0.399040
     14          6           0       -1.129988    3.127200   -0.416240
     15          6           0       -3.295630   -2.669749    0.441540
     16          6           0       -2.427840   -3.555069   -0.496980
     17          6           0       -3.023580   -2.932289    1.917160
     18          1           0       -1.944890   -2.909089    2.121730
     19          1           0       -3.434510   -3.897569    2.243610
     20          1           0       -3.497730   -2.137939    2.508960
     21          6           0       -4.785910   -2.713728    0.171130
     22          1           0       -5.310640   -2.053308    0.874180
     23          1           0       -5.177850   -3.731958    0.308630
     24          1           0       -5.025990   -2.382908   -0.845530
     25          6           0       -2.120861   -4.943139    0.029870
     26          1           0       -1.498371   -5.479989   -0.698570
     27          1           0       -3.042291   -5.523379    0.184530
     28          1           0       -1.566841   -4.898529    0.974090
     29          6           0       -2.987210   -3.649119   -1.911250
     30          1           0       -3.233640   -2.654599   -2.305300
     31          1           0       -3.884820   -4.280809   -1.959890
     32          1           0       -2.219810   -4.085159   -2.563180
     33          6           0        2.142990   -2.756271   -2.419770
     34          6           0        3.176130   -2.219351   -1.389100
     35          6           0        1.520600   -4.082000   -1.997580
     36          1           0        1.139220   -4.031150   -0.969570
     37          1           0        2.231059   -4.915541   -2.085860
     38          1           0        0.661350   -4.283690   -2.650260
     39          6           0        2.657640   -2.852111   -3.841780
     40          1           0        1.863500   -3.233251   -4.496240
     41          1           0        3.510200   -3.544151   -3.904420
     42          1           0        2.970110   -1.875011   -4.227000
     43          6           0        3.972190   -3.287101   -0.665100
     44          1           0        4.684720   -2.817182    0.026400
     45          1           0        4.545700   -3.899741   -1.375740
     46          1           0        3.318150   -3.945611   -0.081990
     47          6           0        4.121011   -1.172291   -1.966150
     48          1           0        3.567721   -0.396621   -2.514180
     49          1           0        4.866221   -1.611872   -2.642810
     50          1           0        4.657421   -0.688082   -1.136780
     51          5           0       -1.474159   -1.480869   -0.299120
     52          5           0        1.137721   -1.200040   -1.088870
     53          7           0       -1.671078    1.890431   -0.326680
     54          7           0        0.982072    2.003550   -0.457110
     55          8           0       -2.799619   -1.352119    0.149200
     56          8           0       -1.207260   -2.814410   -0.572660
     57          8           0        1.108271   -1.765710   -2.358290
     58          8           0        2.333161   -1.542561   -0.446200
     59         77           0       -0.241189    0.120420   -0.459370
     60          5           0        0.502731   -0.483000    1.285030
     61          8           0        0.259821   -1.653970    1.983580
     62          8           0        1.352211    0.355530    2.003190
     63          6           0        0.799691   -1.496390    3.304500
     64          6           0        1.893061   -0.405501    3.095370
     65          6           0       -0.338589   -1.030890    4.203910
     66          6           0        1.317850   -2.839540    3.777100
     67          6           0        2.105831    0.518639    4.278140
     68          6           0        3.230801   -0.971101    2.636660
     69          1           0       -0.735059   -0.062880    3.870210
     70          1           0       -0.023489   -0.940060    5.252220
     71          1           0       -1.154809   -1.762780    4.154160
     72          1           0        0.478960   -3.540350    3.883970
     73          1           0        1.812770   -2.749661    4.754970
     74          1           0        2.025770   -3.269991    3.060250
     75          1           0        2.888802    1.249469    4.037160
     76          1           0        2.433331   -0.047211    5.162300
     77          1           0        1.194851    1.071130    4.533560
     78          1           0        3.098981   -1.661541    1.796140
     79          1           0        3.758681   -1.481441    3.454030
     80          1           0        3.857731   -0.138851    2.286600
     81          1           0       -1.499977    5.250261   -0.586130
     82          1           0        0.548293    5.339960   -0.221760
     83          6           0       -5.333528    2.596132   -0.309120
     84          9           0       -5.671258    1.836032    0.734390
     85          9           0       -5.734888    1.956392   -1.410970
     86          9           0       -6.021878    3.738642   -0.228000
     87          6           0        4.572142    2.958088   -0.230890
     88          9           0        5.024722    2.403958   -1.360590
     89          9           0        4.949772    2.161788    0.773140
     90          9           0        5.186813    4.133778   -0.076920
 ---------------------------------------------------------------------
 Rotational constants (GHZ):           0.0704966           0.0542478           0.0412767
 General basis read from cards:  (5D, 7F)
 ======================================================================================================
                                       Pseudopotential Parameters
 ======================================================================================================
  Center     Atomic      Valence      Angular      Power
  Number     Number     Electrons     Momentum     of R      Exponent        Coefficient   SO-Coeffient
 ======================================================================================================
    1          6
                                   No pseudopotential on this center.
    2          1
                                   No pseudopotential on this center.
    3          6
                                   No pseudopotential on this center.
    4          6
                                   No pseudopotential on this center.
    5          1
                                   No pseudopotential on this center.
    6          6
                                   No pseudopotential on this center.
    7          6
                                   No pseudopotential on this center.
    8          6
                                   No pseudopotential on this center.
    9          1
                                   No pseudopotential on this center.
   10          6
                                   No pseudopotential on this center.
   11          6
                                   No pseudopotential on this center.
   12          1
                                   No pseudopotential on this center.
   13          6
                                   No pseudopotential on this center.
   14          6
                                   No pseudopotential on this center.
   15          6
                                   No pseudopotential on this center.
   16          6
                                   No pseudopotential on this center.
   17          6
                                   No pseudopotential on this center.
   18          1
                                   No pseudopotential on this center.
   19          1
                                   No pseudopotential on this center.
   20          1
                                   No pseudopotential on this center.
   21          6
                                   No pseudopotential on this center.
   22          1
                                   No pseudopotential on this center.
   23          1
                                   No pseudopotential on this center.
   24          1
                                   No pseudopotential on this center.
   25          6
                                   No pseudopotential on this center.
   26          1
                                   No pseudopotential on this center.
   27          1
                                   No pseudopotential on this center.
   28          1
                                   No pseudopotential on this center.
   29          6
                                   No pseudopotential on this center.
   30          1
                                   No pseudopotential on this center.
   31          1
                                   No pseudopotential on this center.
   32          1
                                   No pseudopotential on this center.
   33          6
                                   No pseudopotential on this center.
   34          6
                                   No pseudopotential on this center.
   35          6
                                   No pseudopotential on this center.
   36          1
                                   No pseudopotential on this center.
   37          1
                                   No pseudopotential on this center.
   38          1
                                   No pseudopotential on this center.
   39          6
                                   No pseudopotential on this center.
   40          1
                                   No pseudopotential on this center.
   41          1
                                   No pseudopotential on this center.
   42          1
                                   No pseudopotential on this center.
   43          6
                                   No pseudopotential on this center.
   44          1
                                   No pseudopotential on this center.
   45          1
                                   No pseudopotential on this center.
   46          1
                                   No pseudopotential on this center.
   47          6
                                   No pseudopotential on this center.
   48          1
                                   No pseudopotential on this center.
   49          1
                                   No pseudopotential on this center.
   50          1
                                   No pseudopotential on this center.
   51          5
                                   No pseudopotential on this center.
   52          5
                                   No pseudopotential on this center.
   53          7
                                   No pseudopotential on this center.
   54          7
                                   No pseudopotential on this center.
   55          8
                                   No pseudopotential on this center.
   56          8
                                   No pseudopotential on this center.
   57          8
                                   No pseudopotential on this center.
   58          8
                                   No pseudopotential on this center.
   59         77           17
                                      G and up 
                                                     1      823.5880147       -0.15780140    0.00000000
                                                     2      364.6613336    -1517.52704460    0.00000000
                                                     2       55.7082801     -316.53065290    0.00000000
                                                     2       12.0464544      -91.88809410    0.00000000
                                                     2        3.5120610       -9.22417730    0.00000000
                                      S - G
                                                     0      188.0490770        3.15780140    0.00000000
                                                     1      340.4194712       26.83225770    0.00000000
                                                     2      128.2373673      800.42500070    0.00000000
                                                     2       33.8644961      369.40506830    0.00000000
                                                     2        4.7560005      242.41718990    0.00000000
                                                     2        3.9649974     -118.21732820    0.00000000
                                      P - G
                                                     0      289.7291139        2.15780140    0.00000000
                                                     1       87.4633789       61.96786100    0.00000000
                                                     2       30.4363766      269.05819860    0.00000000
                                                     2        4.0553412      231.16547930    0.00000000
                                                     2        3.5525341     -133.69526670    0.00000000
                                      D - G
                                                     0      136.4017106        3.15780140    0.00000000
                                                     1       95.0776925       45.93498030    0.00000000
                                                     2       49.2258410      359.03446680    0.00000000
                                                     2       15.0874145      176.47401190    0.00000000
                                                     2        4.0405764       54.51552860    0.00000000
                                      F - G
                                                     0      127.3507908        3.95461970    0.00000000
                                                     1       66.2364374       52.97736550    0.00000000
                                                     2       34.4299229      274.86433830    0.00000000
                                                     2       10.1995721      137.20473380    0.00000000
                                                     2        2.5409702       14.86333050    0.00000000
   60          5
                                   No pseudopotential on this center.
   61          8
                                   No pseudopotential on this center.
   62          8
                                   No pseudopotential on this center.
   63          6
                                   No pseudopotential on this center.
   64          6
                                   No pseudopotential on this center.
   65          6
                                   No pseudopotential on this center.
   66          6
                                   No pseudopotential on this center.
   67          6
                                   No pseudopotential on this center.
   68          6
                                   No pseudopotential on this center.
   69          1
                                   No pseudopotential on this center.
   70          1
                                   No pseudopotential on this center.
   71          1
                                   No pseudopotential on this center.
   72          1
                                   No pseudopotential on this center.
   73          1
                                   No pseudopotential on this center.
   74          1
                                   No pseudopotential on this center.
   75          1
                                   No pseudopotential on this center.
   76          1
                                   No pseudopotential on this center.
   77          1
                                   No pseudopotential on this center.
   78          1
                                   No pseudopotential on this center.
   79          1
                                   No pseudopotential on this center.
   80          1
                                   No pseudopotential on this center.
   81          1
                                   No pseudopotential on this center.
   82          1
                                   No pseudopotential on this center.
   83          6
                                   No pseudopotential on this center.
   84          9
                                   No pseudopotential on this center.
   85          9
                                   No pseudopotential on this center.
   86          9
                                   No pseudopotential on this center.
   87          6
                                   No pseudopotential on this center.
   88          9
                                   No pseudopotential on this center.
   89          9
                                   No pseudopotential on this center.
   90          9
                                   No pseudopotential on this center.
 ======================================================================================================
 There are   813 symmetry adapted cartesian basis functions of A   symmetry.
 There are   764 symmetry adapted basis functions of A   symmetry.
   764 basis functions,  1527 primitive gaussians,   813 cartesian basis functions
   185 alpha electrons      185 beta electrons
       nuclear repulsion energy      7467.5180386576 Hartrees.
 NAtoms=   90 NActive=   90 NUniq=   90 SFac= 1.00D+00 NAtFMM=   60 NAOKFM=T Big=T
 Integral buffers will be    131072 words long.
 Raffenetti 2 integral format.
 Two-electron integral symmetry is turned on.
 One-electron integrals computed using PRISM.
   1 Symmetry operations used in ECPInt.
 ECPInt:  NShTT=   39340 NPrTT=  247034 LenC2=   29448 LenP2D=   93541.
 LDataN:  DoStor=T MaxTD1= 6 Len=  172
 NBasis=   764 RedAO= T EigKep=  4.45D-04  NBF=   764
 NBsUse=   764 1.00D-06 EigRej= -1.00D+00 NBFU=   764
 Defaulting to unpruned grid for atomic number  77.
 ExpMin= 2.90D-02 ExpMax= 7.00D+03 ExpMxC= 1.05D+03 IAcc=3 IRadAn=         5 AccDes= 0.00D+00
 Harris functional with IExCor= 1009 and IRadAn=       5 diagonalized for initial guess.
 HarFok:  IExCor= 1009 AccDes= 0.00D+00 IRadAn=         5 IDoV= 1 UseB2=F ITyADJ=14
 ICtDFT=  3500011 ScaDFX=  1.000000  1.000000  1.000000  1.000000
 Defaulting to unpruned grid for atomic number  77.
 FoFCou: FMM=F IPFlag=           0 FMFlag=      100000 FMFlg1=        2001
         NFxFlg=           0 DoJE=T BraDBF=F KetDBF=T FulRan=T
         wScrn=  0.000000 ICntrl=       500 IOpCl=  0 I1Cent=   200000004 NGrid=           0
         NMat0=    1 NMatS0=      1 NMatT0=    0 NMatD0=    1 NMtDS0=    0 NMtDT0=    0
 Petite list used in FoFCou.
 Requested convergence on RMS density matrix=1.00D-08 within 128 cycles.
 Requested convergence on MAX density matrix=1.00D-06.
 Requested convergence on             energy=1.00D-06.
 No special actions if energy rises.
 Defaulting to unpruned grid for atomic number  77.
 Defaulting to unpruned grid for atomic number  77.
 Defaulting to unpruned grid for atomic number  77.
 Defaulting to unpruned grid for atomic number  77.
 Defaulting to unpruned grid for atomic number  77.
 Defaulting to unpruned grid for atomic number  77.
 Defaulting to unpruned grid for atomic number  77.
 Defaulting to unpruned grid for atomic number  77.
 Defaulting to unpruned grid for atomic number  77.
 Defaulting to unpruned grid for atomic number  77.
 Defaulting to unpruned grid for atomic number  77.
 Defaulting to unpruned grid for atomic number  77.
 Defaulting to unpruned grid for atomic number  77.
 Defaulting to unpruned grid for atomic number  77.
 Defaulting to unpruned grid for atomic number  77.
 Defaulting to unpruned grid for atomic number  77.
 SCF Done:  E(RM06) =  -2506.64089908     A.U. after   17 cycles
            NFock= 17  Conv=0.51D-08     -V/T= 2.0354
 DoSCS=F DFT=T ScalE2(SS,OS)=  1.000000  1.000000
 Range of M.O.s used for correlation:     1   764
 NBasis=   764 NAE=   185 NBE=   185 NFC=     0 NFV=     0
 NROrb=    764 NOA=   185 NOB=   185 NVA=   579 NVB=   579
   1 Symmetry operations used in ECPInt.
 ECPInt:  NShTT=   39340 NPrTT=  247034 LenC2=   29448 LenP2D=   93541.
 LDataN:  DoStor=T MaxTD1= 7 Len=  274
 Number of processors reduced to   9 by ecpmxn.
 Symmetrizing basis deriv contribution to polar:
 IMax=3 JMax=2 DiffMx= 0.00D+00
 G2DrvN: will do    91 centers at a time, making    1 passes.
 Calling FoFCou, ICntrl=  3107 FMM=T I1Cent=   0 AccDes= 0.00D+00.
 Defaulting to unpruned grid for atomic number  77.
 Defaulting to unpruned grid for atomic number  77.
 Defaulting to unpruned grid for atomic number  77.
 Defaulting to unpruned grid for atomic number  77.
 Defaulting to unpruned grid for atomic number  77.
 Defaulting to unpruned grid for atomic number  77.
 Defaulting to unpruned grid for atomic number  77.
 Defaulting to unpruned grid for atomic number  77.
 Defaulting to unpruned grid for atomic number  77.
 Defaulting to unpruned grid for atomic number  77.
 Defaulting to unpruned grid for atomic number  77.
 Defaulting to unpruned grid for atomic number  77.
 Defaulting to unpruned grid for atomic number  77.
 Defaulting to unpruned grid for atomic number  77.
 Defaulting to unpruned grid for atomic number  77.
 Defaulting to unpruned grid for atomic number  77.
 End of G2Drv F.D. properties file   721 does not exist.
 End of G2Drv F.D. properties file   722 does not exist.
 End of G2Drv F.D. properties file   788 does not exist.
          IDoAtm=11111111111111111111111111111111111111111111111111
          IDoAtm=1111111111111111111111111111111111111111
          Differentiating once with respect to electric field.
                with respect to dipole field.
          Differentiating once with respect to nuclear coordinates.
 Defaulting to unpruned grid for atomic number  77.
 CalDSu exits because no D1Ps are significant.
 Defaulting to unpruned grid for atomic number  77.
 Defaulting to unpruned grid for atomic number  77.
 Defaulting to unpruned grid for atomic number  77.
 Defaulting to unpruned grid for atomic number  77.
 Defaulting to unpruned grid for atomic number  77.
 Defaulting to unpruned grid for atomic number  77.
 Defaulting to unpruned grid for atomic number  77.
 Defaulting to unpruned grid for atomic number  77.
 Defaulting to unpruned grid for atomic number  77.
 Defaulting to unpruned grid for atomic number  77.
 Defaulting to unpruned grid for atomic number  77.
 Defaulting to unpruned grid for atomic number  77.
 Defaulting to unpruned grid for atomic number  77.
 Defaulting to unpruned grid for atomic number  77.
 Defaulting to unpruned grid for atomic number  77.
 Defaulting to unpruned grid for atomic number  77.
          There are   273 degrees of freedom in the 1st order CPHF.  IDoFFX=6 NUNeed=     3.
    270 vectors produced by pass  0 Test12= 1.07D-13 1.00D-09 XBig12= 5.08D+02 1.17D+01.
 AX will form    72 AO Fock derivatives at one time.
    270 vectors produced by pass  1 Test12= 1.07D-13 1.00D-09 XBig12= 6.74D+01 1.39D+00.
    270 vectors produced by pass  2 Test12= 1.07D-13 1.00D-09 XBig12= 1.07D+00 1.55D-01.
    270 vectors produced by pass  3 Test12= 1.07D-13 1.00D-09 XBig12= 9.94D-03 1.01D-02.
    270 vectors produced by pass  4 Test12= 1.07D-13 1.00D-09 XBig12= 4.54D-05 4.71D-04.
    255 vectors produced by pass  5 Test12= 1.07D-13 1.00D-09 XBig12= 1.03D-07 2.11D-05.
     80 vectors produced by pass  6 Test12= 1.07D-13 1.00D-09 XBig12= 1.62D-10 7.60D-07.
      3 vectors produced by pass  7 Test12= 1.07D-13 1.00D-09 XBig12= 2.25D-13 3.18D-08.
      1 vectors produced by pass  8 Test12= 1.07D-13 1.00D-09 XBig12= 3.47D-16 1.12D-09.
 InvSVY:  IOpt=1 It=  1 EMax= 1.42D-14
 Solved reduced A of dimension  1689 with   273 vectors.
 Isotropic polarizability for W=    0.000000      435.32 Bohr**3.
 End of Minotr F.D. properties file   721 does not exist.
 End of Minotr F.D. properties file   722 does not exist.
 End of Minotr F.D. properties file   788 does not exist.

 **********************************************************************

            Population analysis using the SCF Density.

 **********************************************************************

 Orbital symmetries:
       Occupied  (A) (A) (A) (A) (A) (A) (A) (A) (A) (A) (A) (A)
                 (A) (A) (A) (A) (A) (A) (A) (A) (A) (A) (A) (A)
                 (A) (A) (A) (A) (A) (A) (A) (A) (A) (A) (A) (A)
                 (A) (A) (A) (A) (A) (A) (A) (A) (A) (A) (A) (A)
                 (A) (A) (A) (A) (A) (A) (A) (A) (A) (A) (A) (A)
                 (A) (A) (A) (A) (A) (A) (A) (A) (A) (A) (A) (A)
                 (A) (A) (A) (A) (A) (A) (A) (A) (A) (A) (A) (A)
                 (A) (A) (A) (A) (A) (A) (A) (A) (A) (A) (A) (A)
                 (A) (A) (A) (A) (A) (A) (A) (A) (A) (A) (A) (A)
                 (A) (A) (A) (A) (A) (A) (A) (A) (A) (A) (A) (A)
                 (A) (A) (A) (A) (A) (A) (A) (A) (A) (A) (A) (A)
                 (A) (A) (A) (A) (A) (A) (A) (A) (A) (A) (A) (A)
                 (A) (A) (A) (A) (A) (A) (A) (A) (A) (A) (A) (A)
                 (A) (A) (A) (A) (A) (A) (A) (A) (A) (A) (A) (A)
                 (A) (A) (A) (A) (A) (A) (A) (A) (A) (A) (A) (A)
                 (A) (A) (A) (A) (A)
       Virtual   (A) (A) (A) (A) (A) (A) (A) (A) (A) (A) (A) (A)
                 (A) (A) (A) (A) (A) (A) (A) (A) (A) (A) (A) (A)
                 (A) (A) (A) (A) (A) (A) (A) (A) (A) (A) (A) (A)
                 (A) (A) (A) (A) (A) (A) (A) (A) (A) (A) (A) (A)
                 (A) (A) (A) (A) (A) (A) (A) (A) (A) (A) (A) (A)
                 (A) (A) (A) (A) (A) (A) (A) (A) (A) (A) (A) (A)
                 (A) (A) (A) (A) (A) (A) (A) (A) (A) (A) (A) (A)
                 (A) (A) (A) (A) (A) (A) (A) (A) (A) (A) (A) (A)
                 (A) (A) (A) (A) (A) (A) (A) (A) (A) (A) (A) (A)
                 (A) (A) (A) (A) (A) (A) (A) (A) (A) (A) (A) (A)
                 (A) (A) (A) (A) (A) (A) (A) (A) (A) (A) (A) (A)
                 (A) (A) (A) (A) (A) (A) (A) (A) (A) (A) (A) (A)
                 (A) (A) (A) (A) (A) (A) (A) (A) (A) (A) (A) (A)
                 (A) (A) (A) (A) (A) (A) (A) (A) (A) (A) (A) (A)
                 (A) (A) (A) (A) (A) (A) (A) (A) (A) (A) (A) (A)
                 (A) (A) (A) (A) (A) (A) (A) (A) (A) (A) (A) (A)
                 (A) (A) (A) (A) (A) (A) (A) (A) (A) (A) (A) (A)
                 (A) (A) (A) (A) (A) (A) (A) (A) (A) (A) (A) (A)
                 (A) (A) (A) (A) (A) (A) (A) (A) (A) (A) (A) (A)
                 (A) (A) (A) (A) (A) (A) (A) (A) (A) (A) (A) (A)
                 (A) (A) (A) (A) (A) (A) (A) (A) (A) (A) (A) (A)
                 (A) (A) (A) (A) (A) (A) (A) (A) (A) (A) (A) (A)
                 (A) (A) (A) (A) (A) (A) (A) (A) (A) (A) (A) (A)
                 (A) (A) (A) (A) (A) (A) (A) (A) (A) (A) (A) (A)
                 (A) (A) (A) (A) (A) (A) (A) (A) (A) (A) (A) (A)
                 (A) (A) (A) (A) (A) (A) (A) (A) (A) (A) (A) (A)
                 (A) (A) (A) (A) (A) (A) (A) (A) (A) (A) (A) (A)
                 (A) (A) (A) (A) (A) (A) (A) (A) (A) (A) (A) (A)
                 (A) (A) (A) (A) (A) (A) (A) (A) (A) (A) (A) (A)
                 (A) (A) (A) (A) (A) (A) (A) (A) (A) (A) (A) (A)
                 (A) (A) (A) (A) (A) (A) (A) (A) (A) (A) (A) (A)
                 (A) (A) (A) (A) (A) (A) (A) (A) (A) (A) (A) (A)
                 (A) (A) (A) (A) (A) (A) (A) (A) (A) (A) (A) (A)
                 (A) (A) (A) (A) (A) (A) (A) (A) (A) (A) (A) (A)
                 (A) (A) (A) (A) (A) (A) (A) (A) (A) (A) (A) (A)
                 (A) (A) (A) (A) (A) (A) (A) (A) (A) (A) (A) (A)
                 (A) (A) (A) (A) (A) (A) (A) (A) (A) (A) (A) (A)
                 (A) (A) (A) (A) (A) (A) (A) (A) (A) (A) (A) (A)
                 (A) (A) (A) (A) (A) (A) (A) (A) (A) (A) (A) (A)
                 (A) (A) (A) (A) (A) (A) (A) (A) (A) (A) (A) (A)
                 (A) (A) (A) (A) (A) (A) (A) (A) (A) (A) (A) (A)
                 (A) (A) (A) (A) (A) (A) (A) (A) (A) (A) (A) (A)
                 (A) (A) (A) (A) (A) (A) (A) (A) (A) (A) (A) (A)
                 (A) (A) (A) (A) (A) (A) (A) (A) (A) (A) (A) (A)
                 (A) (A) (A) (A) (A) (A) (A) (A) (A) (A) (A) (A)
                 (A) (A) (A) (A) (A) (A) (A) (A) (A) (A) (A) (A)
                 (A) (A) (A) (A) (A) (A) (A) (A) (A) (A) (A) (A)
                 (A) (A) (A) (A) (A) (A) (A) (A) (A) (A) (A) (A)
                 (A) (A) (A)
 The electronic state is 1-A.
 Alpha  occ. eigenvalues --  -24.83986 -24.83899 -24.83340 -24.83232 -24.83211
 Alpha  occ. eigenvalues --  -24.83144 -19.20009 -19.19896 -19.19841 -19.19545
 Alpha  occ. eigenvalues --  -19.18990 -19.18801 -14.46529 -14.46125 -10.52153
 Alpha  occ. eigenvalues --  -10.52018 -10.34308 -10.33889 -10.32442 -10.32227
 Alpha  occ. eigenvalues --  -10.31307 -10.30859 -10.30633 -10.30407 -10.30315
 Alpha  occ. eigenvalues --  -10.30135 -10.29064 -10.29005 -10.28838 -10.28500
 Alpha  occ. eigenvalues --  -10.28455 -10.28276 -10.22574 -10.22436 -10.22388
 Alpha  occ. eigenvalues --  -10.22360 -10.22253 -10.22169 -10.22085 -10.21850
 Alpha  occ. eigenvalues --  -10.21560 -10.21369 -10.21276 -10.20987  -6.80340
 Alpha  occ. eigenvalues --   -6.78460  -6.77860  -3.60511  -2.03344  -2.02341
 Alpha  occ. eigenvalues --   -2.02146  -1.36484  -1.36348  -1.27991  -1.27888
 Alpha  occ. eigenvalues --   -1.27434  -1.27274  -1.05894  -1.05373  -1.05064
 Alpha  occ. eigenvalues --   -1.01922  -0.99506  -0.99019  -0.98432  -0.98124
 Alpha  occ. eigenvalues --   -0.87692  -0.86808  -0.85337  -0.81607  -0.80054
 Alpha  occ. eigenvalues --   -0.79740  -0.79485  -0.76526  -0.74508  -0.74199
 Alpha  occ. eigenvalues --   -0.73980  -0.73242  -0.70317  -0.69991  -0.69808
 Alpha  occ. eigenvalues --   -0.69561  -0.69544  -0.67386  -0.67213  -0.66973
 Alpha  occ. eigenvalues --   -0.66817  -0.66241  -0.62683  -0.62409  -0.62276
 Alpha  occ. eigenvalues --   -0.62138  -0.61819  -0.61379  -0.61120  -0.60796
 Alpha  occ. eigenvalues --   -0.60549  -0.57733  -0.55464  -0.54417  -0.54056
 Alpha  occ. eigenvalues --   -0.53687  -0.53098  -0.52600  -0.52451  -0.52276
 Alpha  occ. eigenvalues --   -0.50578  -0.50311  -0.49836  -0.49733  -0.49582
 Alpha  occ. eigenvalues --   -0.48867  -0.48374  -0.47980  -0.47631  -0.46734
 Alpha  occ. eigenvalues --   -0.46518  -0.46325  -0.46213  -0.46129  -0.45840
 Alpha  occ. eigenvalues --   -0.45713  -0.45630  -0.45441  -0.45307  -0.44894
 Alpha  occ. eigenvalues --   -0.44266  -0.44086  -0.43861  -0.43665  -0.43653
 Alpha  occ. eigenvalues --   -0.43543  -0.43501  -0.43049  -0.42858  -0.42628
 Alpha  occ. eigenvalues --   -0.40730  -0.40593  -0.40392  -0.39796  -0.39562
 Alpha  occ. eigenvalues --   -0.39401  -0.39331  -0.39281  -0.39006  -0.38975
 Alpha  occ. eigenvalues --   -0.38783  -0.38555  -0.38370  -0.38124  -0.37240
 Alpha  occ. eigenvalues --   -0.37212  -0.36912  -0.36661  -0.36195  -0.36054
 Alpha  occ. eigenvalues --   -0.35835  -0.35760  -0.35644  -0.35442  -0.35300
 Alpha  occ. eigenvalues --   -0.35141  -0.34470  -0.34222  -0.34164  -0.33982
 Alpha  occ. eigenvalues --   -0.33701  -0.32452  -0.31862  -0.31660  -0.31065
 Alpha  occ. eigenvalues --   -0.30819  -0.30722  -0.29802  -0.29733  -0.29343
 Alpha  occ. eigenvalues --   -0.29097  -0.28862  -0.26594  -0.25959  -0.25423
 Alpha  occ. eigenvalues --   -0.25129  -0.24398  -0.21533  -0.21026  -0.20395
 Alpha virt. eigenvalues --   -0.09683  -0.06112  -0.04808  -0.01424  -0.00991
 Alpha virt. eigenvalues --    0.03098   0.03776   0.05298   0.06573   0.06774
 Alpha virt. eigenvalues --    0.07926   0.08606   0.09665   0.10035   0.10461
 Alpha virt. eigenvalues --    0.10612   0.11874   0.12075   0.12799   0.13066
 Alpha virt. eigenvalues --    0.13403   0.13592   0.13809   0.14237   0.14324
 Alpha virt. eigenvalues --    0.14385   0.14837   0.15197   0.15320   0.15679
 Alpha virt. eigenvalues --    0.15823   0.16015   0.16139   0.16671   0.16848
 Alpha virt. eigenvalues --    0.16880   0.17042   0.17411   0.17573   0.17982
 Alpha virt. eigenvalues --    0.18212   0.18625   0.18689   0.18955   0.19387
 Alpha virt. eigenvalues --    0.19472   0.19641   0.19965   0.20119   0.20254
 Alpha virt. eigenvalues --    0.20437   0.20854   0.20882   0.21079   0.21131
 Alpha virt. eigenvalues --    0.21495   0.21551   0.21601   0.21966   0.22129
 Alpha virt. eigenvalues --    0.22467   0.22907   0.22960   0.23371   0.23686
 Alpha virt. eigenvalues --    0.23854   0.24119   0.24592   0.24791   0.24972
 Alpha virt. eigenvalues --    0.25467   0.25618   0.25947   0.26069   0.26417
 Alpha virt. eigenvalues --    0.26685   0.26946   0.27474   0.27672   0.28035
 Alpha virt. eigenvalues --    0.28539   0.28684   0.29416   0.29826   0.30840
 Alpha virt. eigenvalues --    0.31295   0.31640   0.32209   0.32908   0.33092
 Alpha virt. eigenvalues --    0.33848   0.34646   0.34997   0.35351   0.36278
 Alpha virt. eigenvalues --    0.36886   0.37124   0.38378   0.38701   0.39263
 Alpha virt. eigenvalues --    0.39533   0.40413   0.43123   0.43682   0.44740
 Alpha virt. eigenvalues --    0.45538   0.46255   0.46867   0.47251   0.47523
 Alpha virt. eigenvalues --    0.48358   0.49241   0.50229   0.50337   0.50717
 Alpha virt. eigenvalues --    0.51238   0.51318   0.51686   0.51953   0.52325
 Alpha virt. eigenvalues --    0.52432   0.52839   0.53529   0.53728   0.54573
 Alpha virt. eigenvalues --    0.55043   0.55322   0.55946   0.56167   0.56259
 Alpha virt. eigenvalues --    0.56799   0.57158   0.57455   0.57822   0.58103
 Alpha virt. eigenvalues --    0.58353   0.58396   0.58949   0.59039   0.59201
 Alpha virt. eigenvalues --    0.59523   0.59982   0.60454   0.60591   0.60986
 Alpha virt. eigenvalues --    0.61454   0.61693   0.62214   0.62971   0.63094
 Alpha virt. eigenvalues --    0.63287   0.63781   0.64366   0.64913   0.65716
 Alpha virt. eigenvalues --    0.65934   0.66254   0.66577   0.66965   0.67154
 Alpha virt. eigenvalues --    0.67605   0.68196   0.68645   0.68907   0.69954
 Alpha virt. eigenvalues --    0.70280   0.70572   0.70810   0.70879   0.71188
 Alpha virt. eigenvalues --    0.71627   0.72256   0.72781   0.73140   0.73395
 Alpha virt. eigenvalues --    0.73572   0.74149   0.74245   0.74498   0.74852
 Alpha virt. eigenvalues --    0.75403   0.75604   0.75925   0.76186   0.76629
 Alpha virt. eigenvalues --    0.77634   0.78223   0.78787   0.79204   0.79518
 Alpha virt. eigenvalues --    0.80408   0.80903   0.81792   0.82453   0.83170
 Alpha virt. eigenvalues --    0.83199   0.83437   0.84272   0.84359   0.84654
 Alpha virt. eigenvalues --    0.85026   0.85172   0.85238   0.85565   0.86114
 Alpha virt. eigenvalues --    0.86292   0.86524   0.86658   0.86864   0.87831
 Alpha virt. eigenvalues --    0.88028   0.88238   0.88943   0.89089   0.89299
 Alpha virt. eigenvalues --    0.89759   0.89993   0.90152   0.90433   0.90680
 Alpha virt. eigenvalues --    0.90993   0.91342   0.91750   0.91832   0.92069
 Alpha virt. eigenvalues --    0.92175   0.92772   0.92836   0.93148   0.93555
 Alpha virt. eigenvalues --    0.93789   0.94384   0.94883   0.95090   0.95606
 Alpha virt. eigenvalues --    0.95938   0.96159   0.96588   0.96909   0.97054
 Alpha virt. eigenvalues --    0.97270   0.98219   0.98582   0.99076   0.99848
 Alpha virt. eigenvalues --    1.00134   1.00426   1.00772   1.01595   1.02170
 Alpha virt. eigenvalues --    1.02582   1.02740   1.03911   1.04334   1.04984
 Alpha virt. eigenvalues --    1.05595   1.05972   1.07329   1.07466   1.07797
 Alpha virt. eigenvalues --    1.08420   1.08842   1.09405   1.09852   1.10188
 Alpha virt. eigenvalues --    1.11524   1.12236   1.12732   1.13696   1.15051
 Alpha virt. eigenvalues --    1.15533   1.15909   1.16281   1.16889   1.17317
 Alpha virt. eigenvalues --    1.17456   1.18700   1.19186   1.19576   1.19906
 Alpha virt. eigenvalues --    1.20124   1.20939   1.21033   1.21805   1.23035
 Alpha virt. eigenvalues --    1.23422   1.24106   1.24526   1.25079   1.25369
 Alpha virt. eigenvalues --    1.26299   1.26986   1.27726   1.29019   1.29678
 Alpha virt. eigenvalues --    1.30687   1.31181   1.31300   1.31889   1.33234
 Alpha virt. eigenvalues --    1.33320   1.33721   1.33921   1.34177   1.34473
 Alpha virt. eigenvalues --    1.35025   1.35449   1.35773   1.37184   1.37456
 Alpha virt. eigenvalues --    1.37963   1.38369   1.38650   1.39304   1.40015
 Alpha virt. eigenvalues --    1.40206   1.40875   1.41016   1.41628   1.41708
 Alpha virt. eigenvalues --    1.42393   1.42896   1.43375   1.44093   1.44414
 Alpha virt. eigenvalues --    1.44631   1.45571   1.45771   1.46886   1.47639
 Alpha virt. eigenvalues --    1.48267   1.49121   1.49854   1.50542   1.51123
 Alpha virt. eigenvalues --    1.52414   1.52799   1.54243   1.54391   1.56700
 Alpha virt. eigenvalues --    1.57402   1.57776   1.58178   1.59417   1.60487
 Alpha virt. eigenvalues --    1.61189   1.62429   1.63425   1.63693   1.63961
 Alpha virt. eigenvalues --    1.64640   1.65331   1.66019   1.66477   1.66991
 Alpha virt. eigenvalues --    1.67602   1.68789   1.69076   1.69390   1.70123
 Alpha virt. eigenvalues --    1.70590   1.70632   1.70754   1.71287   1.72128
 Alpha virt. eigenvalues --    1.72656   1.73013   1.73613   1.74796   1.75693
 Alpha virt. eigenvalues --    1.76203   1.76441   1.77121   1.78263   1.78431
 Alpha virt. eigenvalues --    1.79139   1.80195   1.80396   1.80707   1.81470
 Alpha virt. eigenvalues --    1.81797   1.82939   1.83376   1.83988   1.84217
 Alpha virt. eigenvalues --    1.84283   1.84610   1.84720   1.86075   1.87065
 Alpha virt. eigenvalues --    1.87182   1.87372   1.87615   1.88295   1.88757
 Alpha virt. eigenvalues --    1.89572   1.90177   1.91046   1.91355   1.91584
 Alpha virt. eigenvalues --    1.91867   1.92400   1.92624   1.92732   1.93142
 Alpha virt. eigenvalues --    1.93297   1.93553   1.93758   1.94545   1.94672
 Alpha virt. eigenvalues --    1.95338   1.95772   1.96967   1.97429   1.97839
 Alpha virt. eigenvalues --    1.98178   1.99277   2.00444   2.00729   2.01422
 Alpha virt. eigenvalues --    2.01676   2.02039   2.02388   2.02460   2.02936
 Alpha virt. eigenvalues --    2.03201   2.03271   2.03567   2.03998   2.04452
 Alpha virt. eigenvalues --    2.05249   2.05862   2.06276   2.06921   2.07407
 Alpha virt. eigenvalues --    2.07480   2.07646   2.07839   2.07988   2.08328
 Alpha virt. eigenvalues --    2.08971   2.09087   2.09362   2.09659   2.09758
 Alpha virt. eigenvalues --    2.10588   2.10805   2.11205   2.11361   2.11586
 Alpha virt. eigenvalues --    2.12602   2.13114   2.13612   2.14503   2.14943
 Alpha virt. eigenvalues --    2.15552   2.15735   2.16174   2.16355   2.16699
 Alpha virt. eigenvalues --    2.17809   2.18265   2.19192   2.19381   2.19869
 Alpha virt. eigenvalues --    2.19988   2.20339   2.20613   2.21767   2.22089
 Alpha virt. eigenvalues --    2.22383   2.22849   2.22988   2.23506   2.23743
 Alpha virt. eigenvalues --    2.23981   2.24188   2.24475   2.25789   2.25858
 Alpha virt. eigenvalues --    2.26554   2.26807   2.27267   2.27747   2.28045
 Alpha virt. eigenvalues --    2.28247   2.28615   2.31473   2.31944   2.32175
 Alpha virt. eigenvalues --    2.32410   2.32876   2.33419   2.33819   2.34498
 Alpha virt. eigenvalues --    2.35007   2.35500   2.36426   2.39315   2.39424
 Alpha virt. eigenvalues --    2.39689   2.40073   2.42476   2.43188   2.44735
 Alpha virt. eigenvalues --    2.45789   2.46334   2.47331   2.47884   2.48126
 Alpha virt. eigenvalues --    2.48415   2.48986   2.49480   2.49850   2.50039
 Alpha virt. eigenvalues --    2.51474   2.51752   2.52564   2.59126   2.59713
 Alpha virt. eigenvalues --    2.60194   2.60284   2.60775   2.60973   2.61417
 Alpha virt. eigenvalues --    2.63896   2.65111   2.65381   2.65475   2.65816
 Alpha virt. eigenvalues --    2.66944   2.68833   2.73828   2.75919   2.76516
 Alpha virt. eigenvalues --    2.76781   2.77950   2.78468   2.79095   2.79337
 Alpha virt. eigenvalues --    2.79806   2.79926   2.80554   2.80868   2.81659
 Alpha virt. eigenvalues --    2.81981   2.82286   2.83393   2.84815   2.85564
 Alpha virt. eigenvalues --    2.86514   2.87537   2.89575   2.90357   2.90527
 Alpha virt. eigenvalues --    2.92051   2.92856   2.93072   2.95551   2.96499
 Alpha virt. eigenvalues --    2.97712   3.03495   3.04536   3.04585   3.05079
 Alpha virt. eigenvalues --    3.05684   3.06024   3.06881   3.07818   3.10089
 Alpha virt. eigenvalues --    3.11358   3.12529   3.13328   3.14556   3.16364
 Alpha virt. eigenvalues --    3.26191   3.30466   3.43908   9.38124
          Condensed to atoms (all electrons):
 Mulliken charges:
               1
     1  C    0.028788
     2  H    0.261048
     3  C   -0.080267
     4  C   -0.150383
     5  H    0.205388
     6  C   -0.195866
     7  C   -0.195336
     8  C   -0.153119
     9  H    0.202559
    10  C   -0.083900
    11  C    0.083034
    12  H    0.213527
    13  C    0.309855
    14  C    0.306305
    15  C    0.299794
    16  C    0.300818
    17  C   -0.511816
    18  H    0.186794
    19  H    0.144315
    20  H    0.160240
    21  C   -0.513282
    22  H    0.165265
    23  H    0.150294
    24  H    0.167282
    25  C   -0.508275
    26  H    0.164929
    27  H    0.145057
    28  H    0.173634
    29  C   -0.506449
    30  H    0.171106
    31  H    0.145099
    32  H    0.170404
    33  C    0.288140
    34  C    0.306747
    35  C   -0.495450
    36  H    0.188790
    37  H    0.138301
    38  H    0.163511
    39  C   -0.511659
    40  H    0.171562
    41  H    0.146374
    42  H    0.166499
    43  C   -0.511072
    44  H    0.162997
    45  H    0.151383
    46  H    0.174021
    47  C   -0.505009
    48  H    0.165123
    49  H    0.155744
    50  H    0.154474
    51  B    0.429422
    52  B    0.432891
    53  N   -0.532664
    54  N   -0.509382
    55  O   -0.548294
    56  O   -0.511746
    57  O   -0.515649
    58  O   -0.531080
    59  Ir   0.069380
    60  B    0.537435
    61  O   -0.516260
    62  O   -0.532266
    63  C    0.295284
    64  C    0.293274
    65  C   -0.507235
    66  C   -0.503039
    67  C   -0.509143
    68  C   -0.508089
    69  H    0.174213
    70  H    0.149224
    71  H    0.166897
    72  H    0.163803
    73  H    0.147701
    74  H    0.174327
    75  H    0.165804
    76  H    0.149764
    77  H    0.166611
    78  H    0.194424
    79  H    0.143133
    80  H    0.152195
    81  H    0.182209
    82  H    0.179049
    83  C    0.973143
    84  F   -0.305112
    85  F   -0.303670
    86  F   -0.317860
    87  C    0.972719
    88  F   -0.306641
    89  F   -0.304723
    90  F   -0.317368
 Sum of Mulliken charges =  -0.00000
 Mulliken charges with hydrogens summed into heavy atoms:
               1
     1  C    0.289836
     3  C   -0.080267
     4  C    0.055005
     6  C   -0.013657
     7  C   -0.016287
     8  C    0.049440
    10  C   -0.083900
    11  C    0.296560
    13  C    0.309855
    14  C    0.306305
    15  C    0.299794
    16  C    0.300818
    17  C   -0.020468
    21  C   -0.030442
    25  C   -0.024655
    29  C   -0.019840
    33  C    0.288140
    34  C    0.306747
    35  C   -0.004848
    39  C   -0.027224
    43  C   -0.022671
    47  C   -0.029668
    51  B    0.429422
    52  B    0.432891
    53  N   -0.532664
    54  N   -0.509382
    55  O   -0.548294
    56  O   -0.511746
    57  O   -0.515649
    58  O   -0.531080
    59  Ir   0.069380
    60  B    0.537435
    61  O   -0.516260
    62  O   -0.532266
    63  C    0.295284
    64  C    0.293274
    65  C   -0.016901
    66  C   -0.017207
    67  C   -0.026964
    68  C   -0.018337
    83  C    0.973143
    84  F   -0.305112
    85  F   -0.303670
    86  F   -0.317860
    87  C    0.972719
    88  F   -0.306641
    89  F   -0.304723
    90  F   -0.317368
 APT charges:
               1
     1  C    0.040706
     2  H    0.154102
     3  C   -0.181300
     4  C    0.094024
     5  H    0.071083
     6  C   -0.217211
     7  C   -0.176532
     8  C    0.044201
     9  H    0.068731
    10  C   -0.144501
    11  C    0.066698
    12  H    0.105689
    13  C    0.154123
    14  C    0.225083
    15  C    0.509277
    16  C    0.500764
    17  C   -0.046899
    18  H    0.025619
    19  H   -0.027242
    20  H   -0.001633
    21  C   -0.008862
    22  H   -0.005546
    23  H   -0.019666
    24  H   -0.000698
    25  C   -0.000775
    26  H   -0.007402
    27  H   -0.025317
    28  H    0.006377
    29  C   -0.028995
    30  H    0.002184
    31  H   -0.028917
    32  H    0.000037
    33  C    0.517346
    34  C    0.490915
    35  C   -0.036957
    36  H    0.021156
    37  H   -0.032781
    38  H    0.000917
    39  C   -0.010627
    40  H   -0.002323
    41  H   -0.020396
    42  H   -0.001406
    43  C   -0.012542
    44  H   -0.001699
    45  H   -0.021111
    46  H    0.010306
    47  C   -0.031534
    48  H   -0.001675
    49  H   -0.021472
    50  H   -0.000159
    51  B    1.266769
    52  B    1.268720
    53  N   -0.163533
    54  N   -0.084881
    55  O   -1.024742
    56  O   -1.005561
    57  O   -1.031856
    58  O   -0.997067
    59  Ir  -0.661741
    60  B    1.233894
    61  O   -0.970338
    62  O   -0.944305
    63  C    0.490442
    64  C    0.502377
    65  C   -0.022920
    66  C   -0.008479
    67  C   -0.015580
    68  C   -0.048170
    69  H   -0.000157
    70  H   -0.022552
    71  H   -0.000204
    72  H   -0.002660
    73  H   -0.018785
    74  H    0.007862
    75  H   -0.002274
    76  H   -0.013381
    77  H   -0.002363
    78  H    0.043871
    79  H   -0.027057
    80  H   -0.009448
    81  H    0.044983
    82  H    0.041784
    83  C    1.815567
    84  F   -0.552514
    85  F   -0.575242
    86  F   -0.593178
    87  C    1.793326
    88  F   -0.567669
    89  F   -0.546005
    90  F   -0.590095
 Sum of APT charges =  -0.00000
 APT charges with hydrogens summed into heavy atoms:
               1
     1  C    0.194808
     3  C   -0.181300
     4  C    0.165107
     6  C   -0.172228
     7  C   -0.134747
     8  C    0.112932
    10  C   -0.144501
    11  C    0.172387
    13  C    0.154123
    14  C    0.225083
    15  C    0.509277
    16  C    0.500764
    17  C   -0.050154
    21  C   -0.034772
    25  C   -0.027117
    29  C   -0.055690
    33  C    0.517346
    34  C    0.490915
    35  C   -0.047665
    39  C   -0.034752
    43  C   -0.025046
    47  C   -0.054839
    51  B    1.266769
    52  B    1.268720
    53  N   -0.163533
    54  N   -0.084881
    55  O   -1.024742
    56  O   -1.005561
    57  O   -1.031856
    58  O   -0.997067
    59  Ir  -0.661741
    60  B    1.233894
    61  O   -0.970338
    62  O   -0.944305
    63  C    0.490442
    64  C    0.502377
    65  C   -0.045833
    66  C   -0.022062
    67  C   -0.033599
    68  C   -0.040804
    83  C    1.815567
    84  F   -0.552514
    85  F   -0.575242
    86  F   -0.593178
    87  C    1.793326
    88  F   -0.567669
    89  F   -0.546005
    90  F   -0.590095
 Electronic spatial extent (au):  <R**2>=          27861.1095
 Charge=             -0.0000 electrons
 Dipole moment (field-independent basis, Debye):
    X=             -0.0972    Y=              6.2509    Z=              0.4382  Tot=              6.2670
 Quadrupole moment (field-independent basis, Debye-Ang):
   XX=           -298.9272   YY=           -252.6654   ZZ=           -292.9825
   XY=             -5.0215   XZ=             -0.1153   YZ=             -4.7098
 Traceless Quadrupole moment (field-independent basis, Debye-Ang):
   XX=            -17.4021   YY=             28.8596   ZZ=            -11.4575
   XY=             -5.0215   XZ=             -0.1153   YZ=             -4.7098
 Octapole moment (field-independent basis, Debye-Ang**2):
  XXX=            -20.9571  YYY=            265.3541  ZZZ=            -24.7123  XYY=            -40.2552
  XXY=            -12.8916  XXZ=            -26.0162  XZZ=              1.4418  YZZ=             11.1566
  YYZ=            -41.9030  XYZ=             10.6394
 Hexadecapole moment (field-independent basis, Debye-Ang**3):
 XXXX=         -16555.6141 YYYY=         -11778.6845 ZZZZ=          -5919.1246 XXXY=            -15.6292
 XXXZ=            -14.2643 YYYX=            -49.1663 YYYZ=            -64.7695 ZZZX=             70.4402
 ZZZY=            -53.7332 XXYY=          -4620.6743 XXZZ=          -3644.3901 YYZZ=          -3158.0267
 XXYZ=             22.0415 YYXZ=              0.5786 ZZXY=            -41.0295
 N-N= 7.467518038658D+03 E-N=-2.078104264179D+04  KE= 2.421018800190D+03
  Exact polarizability:     494.944       3.322     487.097      -0.502       3.426     323.916
 Approx polarizability:     699.902       7.699     690.760       4.771       5.346     476.805
   1 Symmetry operations used in ECPInt.
 ECPInt:  NShTT=   39340 NPrTT=  247034 LenC2=   29448 LenP2D=   93541.
 LDataN:  DoStor=T MaxTD1= 8 Len=  415
 Calling FoFJK, ICntrl=    100127 FMM=F ISym2X=0 I1Cent= 0 IOpClX= 0 NMat=1 NMatS=1 NMatT=0.
 Defaulting to unpruned grid for atomic number  77.
 Defaulting to unpruned grid for atomic number  77.
 Defaulting to unpruned grid for atomic number  77.
 Defaulting to unpruned grid for atomic number  77.
 Defaulting to unpruned grid for atomic number  77.
 Defaulting to unpruned grid for atomic number  77.
 Defaulting to unpruned grid for atomic number  77.
 Defaulting to unpruned grid for atomic number  77.
 Defaulting to unpruned grid for atomic number  77.
 Defaulting to unpruned grid for atomic number  77.
 Defaulting to unpruned grid for atomic number  77.
 Defaulting to unpruned grid for atomic number  77.
 Defaulting to unpruned grid for atomic number  77.
 Defaulting to unpruned grid for atomic number  77.
 Defaulting to unpruned grid for atomic number  77.
 Defaulting to unpruned grid for atomic number  77.
 Full mass-weighted force constant matrix:
 Low frequencies ---   -4.3097    0.0003    0.0005    0.0006    3.3860    4.6556
 Low frequencies ---   13.6802   16.4591   20.3582
 Diagonal vibrational polarizability:
       69.6574185      56.5433548     159.2240171
 Harmonic frequencies (cm**-1), IR intensities (KM/Mole), Raman scattering
 activities (A**4/AMU), depolarization ratios for plane and unpolarized
 incident light, reduced masses (AMU), force constants (mDyne/A),
 and normal coordinates:
                      1                      2                      3
                      A                      A                      A
 Frequencies --     13.3963                16.1881                20.2532
 Red. masses --      7.1440                 4.3132                16.4733
 Frc consts  --      0.0008                 0.0007                 0.0040
 IR Inten    --      0.1774                 0.1495                 0.0564
  Atom AN      X      Y      Z        X      Y      Z        X      Y      Z
     1   6     0.01  -0.00   0.03    -0.00  -0.01  -0.01    -0.01   0.01   0.01
     2   1     0.01  -0.01   0.01    -0.00  -0.01  -0.02    -0.01   0.01   0.01
     3   6     0.01   0.00   0.11    -0.00  -0.01   0.00    -0.00   0.01   0.00
     4   6     0.01   0.00   0.13    -0.00  -0.01   0.02     0.00   0.01   0.02
     5   1     0.01   0.01   0.19    -0.01  -0.01   0.02     0.01   0.01   0.03
     6   6     0.01   0.00   0.09    -0.00  -0.01   0.02     0.00   0.01   0.03
     7   6     0.01  -0.01  -0.00    -0.01  -0.01   0.07     0.00  -0.01   0.01
     8   6     0.01  -0.01  -0.02    -0.01  -0.01   0.09     0.00  -0.01  -0.01
     9   1     0.02  -0.02  -0.01    -0.01  -0.01   0.14     0.01  -0.01  -0.02
    10   6     0.01  -0.01  -0.04    -0.01  -0.00   0.04    -0.00  -0.01  -0.01
    11   6     0.01  -0.01  -0.05    -0.00  -0.00  -0.02    -0.01  -0.01   0.00
    12   1     0.00  -0.01  -0.06     0.00   0.00  -0.05    -0.01  -0.01   0.00
    13   6     0.01  -0.01  -0.01    -0.00  -0.00   0.02    -0.00  -0.00   0.02
    14   6     0.01  -0.00   0.02    -0.00  -0.01   0.01    -0.00   0.00   0.02
    15   6     0.00  -0.02  -0.08     0.01   0.00   0.02     0.02  -0.04   0.04
    16   6     0.02  -0.02  -0.05     0.02  -0.02   0.05     0.03  -0.03   0.04
    17   6    -0.02  -0.00  -0.07    -0.01   0.04   0.03     0.03  -0.02   0.04
    18   1    -0.03   0.01  -0.05    -0.01   0.07   0.04     0.03  -0.00   0.03
    19   1    -0.03   0.00  -0.07     0.00   0.05   0.05     0.05  -0.03   0.04
    20   1    -0.04   0.00  -0.09    -0.03   0.05   0.00     0.02  -0.03   0.03
    21   6     0.01  -0.03  -0.11     0.01  -0.02   0.00     0.02  -0.07   0.04
    22   1    -0.01  -0.02  -0.12    -0.00  -0.00  -0.02     0.00  -0.10   0.05
    23   1     0.01  -0.03  -0.11     0.02  -0.02   0.03     0.05  -0.09   0.03
    24   1     0.03  -0.03  -0.11     0.02  -0.05  -0.01     0.01  -0.07   0.05
    25   6     0.02  -0.01  -0.03     0.03  -0.00   0.10     0.05  -0.02   0.04
    26   1     0.04  -0.02  -0.02     0.05  -0.02   0.12     0.05  -0.02   0.04
    27   1     0.02  -0.02  -0.05     0.04  -0.01   0.11     0.06  -0.03   0.05
    28   1     0.00  -0.00  -0.02     0.03   0.04   0.10     0.06  -0.00   0.04
    29   6     0.05  -0.04  -0.06     0.03  -0.07   0.05     0.02  -0.04   0.04
    30   1     0.05  -0.04  -0.08     0.03  -0.09   0.02     0.01  -0.05   0.04
    31   1     0.06  -0.04  -0.07     0.03  -0.08   0.07     0.03  -0.06   0.05
    32   1     0.07  -0.04  -0.04     0.03  -0.09   0.07     0.03  -0.04   0.04
    33   6     0.06  -0.03   0.04    -0.01   0.00  -0.05    -0.01   0.02  -0.01
    34   6     0.03  -0.03   0.07    -0.01  -0.01  -0.04    -0.01   0.00   0.00
    35   6     0.05  -0.03   0.03    -0.01  -0.00  -0.08    -0.01   0.01  -0.05
    36   1     0.02  -0.03   0.01    -0.01  -0.02  -0.08    -0.01  -0.01  -0.05
    37   1     0.05  -0.03   0.05    -0.01  -0.00  -0.09    -0.01   0.02  -0.06
    38   1     0.07  -0.03  -0.00    -0.01   0.01  -0.08    -0.01   0.02  -0.05
    39   6     0.11  -0.04   0.06    -0.01   0.03  -0.05    -0.01   0.05  -0.02
    40   1     0.13  -0.05   0.03    -0.00   0.04  -0.06    -0.00   0.07  -0.03
    41   1     0.11  -0.04   0.09    -0.01   0.03  -0.06    -0.01   0.05  -0.03
    42   1     0.12  -0.04   0.06    -0.00   0.03  -0.04    -0.00   0.06   0.01
    43   6    -0.00  -0.02   0.11    -0.01  -0.02  -0.06    -0.02  -0.02  -0.02
    44   1    -0.02  -0.02   0.13    -0.02  -0.04  -0.05    -0.02  -0.03  -0.01
    45   1     0.02  -0.03   0.13    -0.01  -0.01  -0.07    -0.02  -0.00  -0.03
    46   1    -0.02  -0.01   0.09    -0.01  -0.04  -0.07    -0.02  -0.02  -0.03
    47   6     0.05  -0.03   0.09    -0.01  -0.00  -0.02    -0.01   0.01   0.02
    48   1     0.07  -0.04   0.07    -0.01   0.01  -0.01    -0.01   0.02   0.04
    49   1     0.07  -0.04   0.12    -0.01   0.01  -0.03    -0.01   0.02   0.02
    50   1     0.02  -0.03   0.11    -0.02  -0.01  -0.01    -0.01  -0.01   0.04
    51   5     0.01  -0.01  -0.06     0.00  -0.01  -0.00    -0.00  -0.01   0.03
    52   5     0.02  -0.02  -0.01    -0.01  -0.01  -0.03    -0.01  -0.00   0.01
    53   7     0.01  -0.01  -0.01    -0.00  -0.01  -0.00    -0.01   0.00   0.02
    54   7     0.01  -0.01  -0.04    -0.00  -0.00  -0.03    -0.01  -0.01   0.02
    55   8     0.00  -0.02  -0.08     0.00  -0.00  -0.01    -0.00  -0.03   0.02
    56   8     0.02  -0.01  -0.04     0.02  -0.01   0.03     0.02  -0.01   0.03
    57   8     0.06  -0.03  -0.00    -0.01   0.00  -0.04    -0.01   0.02   0.00
    58   8    -0.01  -0.02   0.04    -0.02  -0.03  -0.03    -0.02  -0.02   0.01
    59  77     0.01  -0.01  -0.05    -0.00  -0.01  -0.03    -0.01  -0.00   0.02
    60   5    -0.04   0.04  -0.02     0.02   0.02  -0.03     0.00   0.00   0.02
    61   8    -0.05   0.05  -0.00    -0.03   0.05   0.02     0.01   0.01   0.03
    62   8    -0.07   0.06  -0.01     0.08  -0.01  -0.07     0.01   0.01   0.01
    63   6    -0.09   0.08   0.01    -0.02   0.09   0.01     0.02   0.01   0.02
    64   6    -0.09   0.08   0.01     0.05   0.00  -0.05     0.02   0.01   0.01
    65   6    -0.11   0.09  -0.03     0.01   0.22  -0.01     0.03   0.02   0.03
    66   6    -0.09   0.09   0.05    -0.12   0.08   0.09     0.02   0.02   0.02
    67   6    -0.12   0.10   0.00     0.13   0.04  -0.10     0.03   0.02  -0.00
    68   6    -0.08   0.08   0.05    -0.00  -0.11  -0.05     0.02   0.01  -0.00
    69   1    -0.11   0.08  -0.05     0.08   0.23  -0.06     0.03   0.02   0.03
    70   1    -0.14   0.10  -0.02     0.01   0.24  -0.02     0.04   0.02   0.02
    71   1    -0.11   0.08  -0.04    -0.05   0.28   0.01     0.03   0.02   0.03
    72   1    -0.09   0.09   0.04    -0.17   0.15   0.15     0.03   0.02   0.03
    73   1    -0.11   0.11   0.05    -0.11   0.11   0.09     0.03   0.02   0.02
    74   1    -0.07   0.08   0.07    -0.15  -0.02   0.12     0.02   0.01   0.02
    75   1    -0.12   0.10   0.01     0.18  -0.02  -0.15     0.03   0.01  -0.01
    76   1    -0.14   0.12   0.02     0.11   0.06  -0.08     0.04   0.02  -0.00
    77   1    -0.13   0.10  -0.03     0.17   0.12  -0.10     0.03   0.02   0.00
    78   1    -0.05   0.07   0.06    -0.07  -0.15  -0.01     0.01   0.00   0.00
    79   1    -0.09   0.10   0.07    -0.02  -0.10  -0.03     0.02   0.01  -0.01
    80   1    -0.07   0.08   0.05     0.05  -0.17  -0.11     0.01   0.01  -0.01
    81   1     0.01   0.00   0.11    -0.01  -0.00   0.03     0.01   0.00   0.05
    82   1     0.02  -0.01   0.01    -0.01  -0.01   0.11     0.01  -0.00   0.01
    83   6     0.01   0.00   0.16    -0.00  -0.01   0.01    -0.01   0.04  -0.09
    84   9     0.05  -0.04   0.14    -0.00  -0.01   0.01    -0.04  -0.37  -0.40
    85   9    -0.04   0.06   0.14    -0.00  -0.02   0.01    -0.03   0.50  -0.35
    86   9     0.02   0.00   0.24    -0.01  -0.01   0.00     0.02   0.02   0.37
    87   6     0.01  -0.02  -0.05    -0.01  -0.01   0.08     0.00  -0.02  -0.04
    88   9     0.00  -0.02  -0.05     0.02  -0.01   0.09    -0.02  -0.01  -0.05
    89   9     0.01  -0.02  -0.05    -0.04  -0.01   0.09     0.02  -0.02  -0.05
    90   9     0.02  -0.02  -0.05    -0.01  -0.01   0.10     0.00  -0.02  -0.04
                      4                      5                      6
                      A                      A                      A
 Frequencies --     22.2608                30.4740                33.5723
 Red. masses --      4.2572                 8.3915                 5.4451
 Frc consts  --      0.0012                 0.0046                 0.0036
 IR Inten    --      0.3034                 0.4770                 1.4754
  Atom AN      X      Y      Z        X      Y      Z        X      Y      Z
     1   6    -0.00   0.01  -0.01     0.00  -0.01  -0.02     0.00  -0.01   0.01
     2   1    -0.01   0.00  -0.03     0.01  -0.01   0.01     0.00  -0.02  -0.03
     3   6    -0.00   0.01   0.01    -0.00  -0.01  -0.01    -0.00  -0.01   0.03
     4   6     0.00   0.01   0.04    -0.01  -0.01  -0.07    -0.00  -0.01   0.11
     5   1     0.00   0.01   0.05    -0.02  -0.02  -0.07    -0.00  -0.01   0.12
     6   6     0.00   0.01   0.05    -0.02  -0.01  -0.13    -0.00  -0.00   0.15
     7   6    -0.00  -0.00   0.07    -0.02   0.02  -0.15    -0.01  -0.01   0.22
     8   6    -0.00   0.00   0.07    -0.03   0.04  -0.09    -0.01  -0.00   0.18
     9   1    -0.00  -0.00   0.09    -0.04   0.05  -0.10    -0.01  -0.01   0.25
    10   6    -0.00   0.00   0.03    -0.01   0.04  -0.00     0.00   0.01   0.05
    11   6     0.00   0.00  -0.01     0.00   0.03   0.00     0.01   0.01  -0.02
    12   1     0.00   0.01  -0.04     0.01   0.03   0.05     0.01   0.01  -0.11
    13   6    -0.00   0.00   0.03    -0.01   0.01  -0.11    -0.00  -0.00   0.12
    14   6    -0.00   0.00   0.03    -0.01  -0.00  -0.11    -0.00  -0.00   0.11
    15   6    -0.02   0.02  -0.02    -0.01   0.03   0.01     0.01   0.01   0.03
    16   6     0.00  -0.01   0.03    -0.04   0.03  -0.02    -0.03   0.02  -0.02
    17   6    -0.05   0.07  -0.00     0.01   0.01   0.00     0.06  -0.03   0.01
    18   1    -0.06   0.08   0.02     0.02  -0.01  -0.02     0.07  -0.05  -0.03
    19   1    -0.06   0.08   0.02    -0.00   0.02  -0.00     0.06  -0.03   0.01
    20   1    -0.06   0.09  -0.04     0.04   0.01   0.02     0.10  -0.03   0.05
    21   6    -0.01   0.01  -0.05    -0.01   0.06   0.03     0.00   0.04   0.08
    22   1    -0.03   0.03  -0.08     0.00   0.05   0.06     0.04   0.03   0.12
    23   1    -0.01   0.01  -0.03    -0.02   0.06   0.01    -0.01   0.04   0.07
    24   1     0.01  -0.02  -0.06    -0.03   0.08   0.04    -0.03   0.07   0.10
    25   6     0.00   0.02   0.09    -0.06   0.02  -0.04    -0.05  -0.00  -0.08
    26   1     0.02  -0.01   0.12    -0.08   0.02  -0.06    -0.09   0.01  -0.11
    27   1     0.01   0.02   0.10    -0.07   0.04  -0.03    -0.06   0.02  -0.07
    28   1    -0.01   0.06   0.10    -0.04  -0.01  -0.05    -0.02  -0.05  -0.09
    29   6     0.03  -0.06   0.02    -0.06   0.07  -0.01    -0.08   0.08  -0.01
    30   1     0.03  -0.08  -0.02    -0.05   0.08   0.01    -0.07   0.10   0.03
    31   1     0.04  -0.07   0.03    -0.07   0.08  -0.01    -0.09   0.10  -0.01
    32   1     0.05  -0.08   0.06    -0.07   0.07  -0.03    -0.10   0.09  -0.05
    33   6     0.00  -0.05   0.06    -0.02  -0.07   0.05    -0.02  -0.07   0.01
    34   6     0.03   0.06  -0.03     0.00  -0.03   0.00    -0.02  -0.05  -0.00
    35   6     0.06  -0.04   0.20    -0.02  -0.05   0.14    -0.04  -0.05   0.05
    36   1     0.09   0.04   0.20     0.00   0.01   0.15    -0.03  -0.02   0.05
    37   1     0.08  -0.02   0.24    -0.03  -0.06   0.17    -0.06  -0.06   0.07
    38   1     0.04  -0.12   0.24    -0.04  -0.08   0.17    -0.05  -0.05   0.06
    39   6    -0.06  -0.15   0.05    -0.05  -0.16   0.05    -0.03  -0.12   0.01
    40   1    -0.08  -0.24   0.11    -0.07  -0.19   0.09    -0.03  -0.13   0.03
    41   1    -0.04  -0.13   0.06    -0.06  -0.16   0.07    -0.04  -0.13   0.04
    42   1    -0.11  -0.17  -0.05    -0.06  -0.18  -0.01    -0.01  -0.13  -0.02
    43   6     0.10   0.14   0.02     0.01   0.01   0.04    -0.03  -0.04   0.03
    44   1     0.10   0.21  -0.04     0.03   0.04   0.00    -0.03  -0.03   0.01
    45   1     0.09   0.11   0.04    -0.00  -0.03   0.06    -0.04  -0.07   0.05
    46   1     0.14   0.15   0.09     0.02   0.04   0.08    -0.04  -0.02   0.05
    47   6    -0.03   0.04  -0.15    -0.00  -0.06  -0.07    -0.00  -0.08  -0.03
    48   1    -0.07  -0.01  -0.17    -0.01  -0.08  -0.10     0.01  -0.09  -0.06
    49   1    -0.05   0.01  -0.16    -0.02  -0.10  -0.07    -0.01  -0.11  -0.02
    50   1     0.01   0.11  -0.21     0.02  -0.03  -0.11     0.00  -0.06  -0.05
    51   5    -0.01   0.00  -0.01    -0.00   0.01  -0.01     0.01   0.00  -0.01
    52   5     0.01   0.01  -0.01     0.01  -0.01  -0.01    -0.01  -0.02  -0.03
    53   7    -0.00   0.00  -0.00     0.00  -0.00  -0.07     0.00  -0.01   0.05
    54   7    -0.00   0.00  -0.00     0.00   0.01  -0.05     0.00   0.01   0.00
    55   8    -0.02   0.01  -0.05     0.01   0.03   0.02     0.02   0.01   0.04
    56   8     0.00  -0.00   0.03    -0.03   0.01  -0.02    -0.02   0.00  -0.03
    57   8    -0.02  -0.08   0.03    -0.01  -0.06   0.02    -0.01  -0.05  -0.02
    58   8     0.05   0.10  -0.04     0.03   0.03  -0.02    -0.01  -0.01  -0.02
    59  77    -0.00   0.00  -0.01     0.01   0.00  -0.02     0.01  -0.00  -0.03
    60   5     0.00  -0.01  -0.02     0.03  -0.02  -0.03     0.00   0.03  -0.02
    61   8    -0.00  -0.02  -0.03     0.03  -0.03  -0.04     0.03   0.03  -0.02
    62   8     0.00  -0.02  -0.01     0.03  -0.03  -0.03    -0.02   0.06  -0.02
    63   6    -0.01  -0.03  -0.03     0.03  -0.04  -0.04     0.03   0.04  -0.02
    64   6    -0.00  -0.03  -0.02     0.03  -0.04  -0.04    -0.00   0.08  -0.02
    65   6    -0.01  -0.02  -0.03     0.04  -0.05  -0.03     0.02   0.00  -0.02
    66   6    -0.02  -0.03  -0.03     0.03  -0.05  -0.06     0.08   0.06  -0.02
    67   6     0.00  -0.04  -0.01     0.03  -0.04  -0.03    -0.03   0.08  -0.02
    68   6    -0.00  -0.03  -0.02     0.03  -0.03  -0.03     0.02   0.11  -0.02
    69   1    -0.00  -0.02  -0.03     0.03  -0.05  -0.02    -0.01  -0.01  -0.01
    70   1    -0.00  -0.02  -0.03     0.04  -0.06  -0.03     0.02   0.01  -0.02
    71   1    -0.01  -0.02  -0.02     0.04  -0.05  -0.03     0.04  -0.02  -0.02
    72   1    -0.02  -0.03  -0.04     0.03  -0.05  -0.07     0.10   0.03  -0.02
    73   1    -0.02  -0.04  -0.02     0.04  -0.06  -0.06     0.08   0.07  -0.03
    74   1    -0.01  -0.03  -0.03     0.03  -0.04  -0.07     0.09   0.08  -0.03
    75   1     0.01  -0.04  -0.01     0.03  -0.04  -0.03    -0.05   0.11  -0.02
    76   1    -0.01  -0.04  -0.01     0.03  -0.05  -0.03    -0.01   0.10  -0.02
    77   1     0.00  -0.03  -0.01     0.03  -0.05  -0.03    -0.05   0.05  -0.02
    78   1    -0.00  -0.03  -0.02     0.04  -0.03  -0.04     0.04   0.12  -0.03
    79   1    -0.01  -0.04  -0.01     0.03  -0.04  -0.03     0.03   0.12  -0.02
    80   1     0.00  -0.04  -0.01     0.03  -0.03  -0.03    -0.00   0.13  -0.01
    81   1     0.00   0.01   0.07    -0.03  -0.01  -0.17    -0.00   0.00   0.21
    82   1    -0.00  -0.00   0.10    -0.03   0.02  -0.21    -0.01  -0.02   0.32
    83   6    -0.00   0.01  -0.00    -0.00  -0.01   0.07     0.00  -0.03  -0.04
    84   9    -0.01  -0.00  -0.01     0.06  -0.08   0.04    -0.05  -0.03  -0.06
    85   9     0.00   0.03  -0.01    -0.08   0.06   0.06     0.06  -0.03  -0.06
    86   9    -0.00   0.01   0.01     0.01  -0.01   0.19    -0.01  -0.03  -0.08
    87   6    -0.00   0.00   0.00    -0.02   0.06   0.12     0.00   0.02   0.01
    88   9    -0.01   0.10  -0.05     0.08  -0.08   0.23    -0.03  -0.06   0.03
    89   9     0.01  -0.09  -0.07    -0.08   0.20   0.25     0.05   0.09   0.05
    90   9    -0.00  -0.01   0.10    -0.04   0.09   0.01     0.00   0.03  -0.09
                      7                      8                      9
                      A                      A                      A
 Frequencies --     35.4172                47.1783                54.6566
 Red. masses --      3.8902                 5.2337                 4.7311
 Frc consts  --      0.0029                 0.0069                 0.0083
 IR Inten    --      0.1985                 0.0972                 0.1279
  Atom AN      X      Y      Z        X      Y      Z        X      Y      Z
     1   6    -0.01   0.01  -0.00     0.00   0.01  -0.00    -0.03   0.01  -0.03
     2   1    -0.01   0.01  -0.02    -0.00   0.02   0.03    -0.03   0.01  -0.04
     3   6    -0.00   0.02   0.01     0.01   0.02  -0.03    -0.02   0.02  -0.01
     4   6     0.00   0.02   0.03     0.03   0.01  -0.08    -0.02   0.02   0.01
     5   1     0.01   0.02   0.04     0.03   0.01  -0.11    -0.02   0.02   0.03
     6   6     0.00   0.01   0.04     0.03  -0.00  -0.10    -0.02   0.01   0.01
     7   6    -0.00   0.00   0.03     0.01  -0.02   0.02    -0.02   0.01   0.03
     8   6    -0.00   0.00   0.02     0.01  -0.03   0.05    -0.02   0.00   0.03
     9   1    -0.00   0.00   0.02     0.01  -0.03   0.10    -0.02  -0.00   0.06
    10   6    -0.00   0.00   0.01     0.01  -0.03   0.04    -0.03   0.00   0.01
    11   6    -0.00   0.00   0.01     0.01  -0.02  -0.01    -0.03   0.01  -0.02
    12   1    -0.00   0.00   0.01     0.01  -0.02  -0.01    -0.03   0.01  -0.04
    13   6    -0.00   0.00   0.03     0.01  -0.02  -0.03    -0.02   0.01  -0.00
    14   6    -0.00   0.01   0.03     0.02  -0.01  -0.05    -0.02   0.01  -0.01
    15   6    -0.02   0.02  -0.03     0.05  -0.03   0.09     0.02   0.00   0.05
    16   6     0.03  -0.03   0.07     0.02  -0.03   0.06    -0.01   0.01   0.01
    17   6    -0.07   0.13   0.00     0.11  -0.04   0.08     0.07  -0.01   0.04
    18   1    -0.08   0.15   0.04     0.11  -0.05   0.03     0.08  -0.01  -0.00
    19   1    -0.08   0.15   0.06     0.12  -0.04   0.09     0.09  -0.02   0.04
    20   1    -0.10   0.17  -0.07     0.14  -0.04   0.10     0.09  -0.02   0.06
    21   6    -0.01  -0.02  -0.08     0.04  -0.04   0.15     0.01   0.00   0.11
    22   1    -0.05   0.02  -0.15     0.06  -0.04   0.17     0.04   0.00   0.13
    23   1     0.00  -0.02  -0.03     0.05  -0.04   0.18     0.01   0.00   0.12
    24   1     0.03  -0.09  -0.11    -0.01  -0.05   0.16    -0.03   0.00   0.12
    25   6     0.06   0.02   0.20     0.07  -0.02   0.05     0.02   0.01  -0.01
    26   1     0.10  -0.02   0.26     0.04  -0.02   0.02    -0.01   0.02  -0.04
    27   1     0.08   0.01   0.23     0.08  -0.03   0.10     0.03   0.00   0.03
    28   1     0.04   0.13   0.21     0.12  -0.00   0.02     0.06   0.01  -0.03
    29   6     0.07  -0.17   0.07    -0.05  -0.05   0.08    -0.07   0.01   0.03
    30   1     0.07  -0.21  -0.03    -0.08  -0.06   0.09    -0.09   0.01   0.05
    31   1     0.08  -0.19   0.10    -0.04  -0.06   0.13    -0.06   0.00   0.06
    32   1     0.09  -0.22   0.12    -0.07  -0.04   0.05    -0.08   0.03   0.00
    33   6     0.00   0.00  -0.02    -0.00   0.01  -0.05     0.06   0.01   0.06
[...]
 001689,0.00015353,-0.00008277,0.00001533,-0.00000181,0.00005990,0.0000
 6463,0.00000005,-0.00005973,0.00002129,0.00010268,-0.00011128,0.000092
 16,-0.00000729,0.00001836,-0.00033276,-0.00076753,0.00065940,0.0000756
 3,-0.00006988,0.00004245,-0.00054737,0.00002841,0.00018393,0.00100519,
 0.00015280,-0.00002838,-0.00028476,-0.00015467,0.00013335,-0.00030782,
 -0.00013230,-0.00012508,-0.00026846,0.00010057,0.00001100,-0.11587731,
 0.04830084,-0.06363710,0.01831730,-0.00619028,0.00897754,0.10263853,0.
 00009269,-0.00010587,0.00003708,0.00001847,-0.00006616,0.00001803,0.00
 018482,0.00012895,-0.00003964,-0.00016487,0.00005210,-0.00000375,0.000
 00849,-0.00000829,0.00000626,0.00023458,-0.00000229,-0.00001253,0.0003
 3483,0.00033982,-0.00091199,0.00086409,0.00116850,0.00028677,-0.000603
 04,0.00042816,0.00058619,0.01232276,-0.00447486,0.01727665,-0.00017070
 ,-0.00369964,0.00013842,0.00059329,0.00125149,0.00052479,-0.00031803,0
 .00042670,0.00023596,-0.00027608,0.00015932,0.00020239,-0.00002747,-0.
 00012321,0.00007049,-0.00002491,-0.00002099,-0.00000003,0.00002275,0.0
 0001306,-0.00001770,-0.00000560,0.00000990,0.00000896,0.00000021,0.000
 00853,-0.00001279,0.00000557,-0.00000303,0.00000760,0.00000479,0.00002
 038,-0.00001586,-0.00000284,-0.00000428,0.00001101,0.00000958,0.000010
 44,-0.00000030,-0.00000764,-0.00000614,-0.00001293,0.00001668,-0.00000
 091,0.00000996,-0.00000118,0.00001297,0.00000875,-0.00000503,0.0000088
 0,-0.00000238,0.00000150,0.00000102,-0.00001316,0.00001918,-0.00000427
 ,-0.00001106,-0.00000626,0.00000707,-0.00000920,0.00000218,0.00000249,
 0.00000522,-0.00000235,0.00000451,0.00000577,0.00021858,-0.00012822,0.
 00015840,0.00016804,0.00008714,-0.00020191,-0.00007463,0.00001509,-0.0
 0005601,0.00003787,-0.00000361,0.00000850,-0.00000325,0.00002786,0.000
 01180,-0.00003104,-0.00003156,-0.00002524,-0.00006154,0.00000311,-0.00
 001765,-0.00002298,-0.00002719,-0.00002358,-0.00000771,0.00002688,0.00
 002381,0.00002632,-0.00000794,0.00002937,0.00007196,0.00004815,0.00010
 529,-0.00008477,0.00003534,-0.00007178,-0.00001819,-0.00000447,-0.0000
 4028,-0.00001546,-0.00001967,0.00000571,0.00029448,0.00015933,0.000507
 90,-0.00009065,-0.00001049,-0.00010824,-0.00005239,-0.00005958,-0.0000
 6897,-0.00011052,-0.00017323,-0.00012664,-0.00008148,-0.00044083,0.000
 10403,0.00118256,-0.00068280,0.00012818,0.00025688,0.00001651,0.000076
 82,0.00096295,0.00046155,-0.00129005,0.00009014,0.00023781,-0.00007006
 ,-0.00000019,0.00027429,-0.00002694,-0.00046786,0.00028231,-0.00002004
 ,-0.00093906,0.00027673,-0.00021452,-0.00044996,0.00015889,-0.00066910
 ,0.00104262,-0.00010155,0.00138902,-0.00040036,0.00005227,-0.00055019,
 -0.00100356,0.00000448,-0.00087488,0.00015598,0.00022550,0.00020686,0.
 00066011,-0.00028901,0.00017073,-0.00007721,-0.00009314,-0.00003981,-0
 .00003844,-0.00003097,-0.00004026,0.00007830,0.00020012,-0.00005150,-0
 .00014578,0.00013518,0.00005479,0.00001538,0.00002515,0.00001353,0.000
 01249,0.00000984,-0.00003087,-0.00004944,-0.00002526,0.00002672,-0.000
 04444,-0.00002568,0.00001923,0.00000342,0.00002565,-0.00003894,0.00001
 414,0.00005773,0.00002434,-0.00000087,-0.00016106,-0.00011998,-0.00002
 644,-0.00003995,-0.00001037,-0.00010157,-0.00000264,0.00006571,0.00005
 795,0.00005196,0.00002166,-0.00005219,0.00000083,0.00005739,-0.0011714
 6,-0.00264715,0.00167406,-0.00004059,0.00004927,-0.00001194,0.00020622
 ,-0.00002846,-0.00002576,-0.00045201,-0.00012856,0.00004598,0.00013640
 ,0.00009689,-0.00008368,0.00014119,0.00007307,0.00005192,0.00010447,-0
 .00001803,-0.00000797,0.04960941,-0.15155780,0.09615090,-0.00420767,0.
 01776543,0.00425718,-0.05699347,0.20693209,-0.00005977,0.00008226,-0.0
 0002834,-0.00001144,0.00004883,-0.00001897,-0.00015864,-0.00010418,0.0
 0003666,0.00013340,-0.00003382,-0.00000457,-0.00000797,0.00000756,-0.0
 0000952,-0.00023013,0.00003168,0.00001946,-0.00059160,0.00071864,0.000
 43047,-0.00285159,-0.00205781,-0.00106701,0.00028532,-0.00015344,-0.00
 027738,-0.01125823,0.01642186,-0.00648050,0.00072738,0.00162624,-0.000
 02268,-0.00051189,-0.00035310,-0.00093109,0.00034381,-0.00007146,-0.00
 026547,0.00026088,-0.00009096,-0.00004613,0.00003778,0.00013651,-0.000
 09945,0.00005853,0.00003490,-0.00000975,-0.00002827,-0.00001384,0.0000
 2516,0.00000854,-0.00001608,-0.00001686,0.00000164,-0.00001058,0.00001
 488,-0.00001353,0.00000874,-0.00000415,-0.00000557,-0.00002218,0.00002
 274,-0.00000281,0.00000826,-0.00000690,-0.00001075,-0.00001168,-0.0000
 0146,0.00001208,0.00000355,0.00001388,-0.00001507,-0.00000852,-0.00001
 865,0.00000228,-0.00000100,-0.00000040,-0.00000251,-0.00001050,0.00000
 409,0.00000380,-0.00000283,0.00001137,-0.00001637,-0.00000123,0.000007
 53,0.00000996,-0.00000819,0.00000817,-0.00000772,-0.00000574,-0.000003
 43,0.00000126,0.00000513,0.00000118,-0.00006963,0.00006075,-0.00004718
 ,0.00023108,0.00005503,-0.00019100,0.00000147,-0.00000331,0.00000964,-
 0.00002442,-0.00000279,0.00000676,0.00000884,-0.00002242,-0.00001001,0
 .00000664,0.00000118,0.00001113,0.00003858,0.00003785,-0.00000385,-0.0
 0000389,-0.00000030,0.00001340,0.00000784,-0.00001059,-0.00000771,-0.0
 0000856,-0.00001670,0.00002091,-0.00017798,-0.00008862,-0.00003992,0.0
 0009456,0.00001244,0.00001716,0.00001744,0.00001887,0.00004061,0.00000
 015,-0.00005564,0.00002174,-0.00041221,-0.00011510,-0.00019929,0.00027
 556,0.00004405,0.00023978,0.00004029,0.00001494,0.00005831,-0.00001439
 ,-0.00019949,-0.00046331,0.00017732,0.00042862,-0.00017215,-0.00050277
 ,0.00037494,-0.00023544,-0.00022596,-0.00000977,-0.00006727,-0.0005306
 6,-0.00001513,0.00034318,-0.00017169,-0.00024240,0.00011474,-0.0000662
 4,-0.00025912,0.00006947,0.00017154,-0.00016374,0.00014618,0.00035250,
 -0.00021306,0.00043269,0.00031784,-0.00022759,0.00081626,-0.00124262,0
 .00003548,-0.00186027,0.00050535,-0.00000786,0.00078829,0.00126009,0.0
 0017503,0.00126761,-0.00021831,-0.00030447,-0.00029540,-0.00070279,0.0
 0029221,-0.00036836,0.00009001,0.00011242,0.00005106,0.00006020,0.0000
 3385,0.00004446,-0.00020944,-0.00027729,0.00009434,-0.00005487,-0.0003
 4689,0.00013798,-0.00003067,-0.00002614,-0.00002491,-0.00001663,-0.000
 01803,0.00005637,0.00006281,0.00003885,-0.00003077,0.00005446,0.000035
 53,-0.00002645,-0.00000186,-0.00003509,0.00005705,-0.00002762,-0.00006
 249,-0.00002827,-0.00000969,0.00010113,0.00027734,0.00004393,0.0000758
 9,0.00000804,0.00010039,0.00001262,-0.00005308,0.00001320,0.00008374,-
 0.00010653,0.00006598,0.00000128,-0.00003779,0.00092841,0.00202124,-0.
 00122685,0.00004691,-0.00005696,0.00000113,-0.00034812,0.00002239,0.00
 007559,0.00040982,0.00009614,-0.00009172,-0.00012616,-0.00008716,0.000
 09162,-0.00012064,-0.00005275,-0.00002571,-0.00010349,0.00002627,0.000
 01670,-0.06368756,0.09273986,-0.19316483,-0.00310630,0.01954426,-0.086
 29854,0.07418918,-0.16004208,0.28550755,-0.00007490,0.00018656,-0.0000
 4397,0.00000115,0.00004121,-0.00000898,-0.00031248,-0.00021389,0.00005
 083,0.00027010,0.00006355,-0.00000210,-0.00002667,0.00001212,-0.000001
 89,-0.00055517,0.00000653,-0.00001810,-0.00045584,-0.00070484,0.000019
 51,-0.00045987,-0.00211565,-0.00016299,-0.00281587,0.00006545,-0.00015
 507,-0.02445044,-0.04469784,-0.00609919,-0.00681561,0.00614121,-0.0003
 1877,0.00015396,0.00014921,-0.00003410,0.00049685,-0.00072807,-0.00008
 139,0.00063201,-0.00001711,0.00002244,0.00010756,0.00029080,-0.0000972
 0,0.00023394,0.00015003,0.00003430,-0.00001259,-0.00004792,0.00001388,
 0.00000662,0.00002180,-0.00001887,-0.00001500,-0.00003875,0.00002609,0
 .00000446,0.00001530,-0.00000844,-0.00001398,-0.00003627,0.00002045,-0
 .00000067,0.00001881,-0.00000376,-0.00002603,-0.00003328,0.00000173,0.
 00000952,0.00001350,0.00000169,-0.00003285,-0.00001879,-0.00001110,0.0
 0001812,-0.00000761,-0.00001136,-0.00002160,-0.00003064,0.00000984,0.0
 0000436,0.00001375,0.00000309,-0.00004203,-0.00001259,-0.00000418,0.00
 001832,0.00000110,0.00002183,-0.00003601,-0.00002351,-0.00001270,0.000
 01802,0.00000213,-0.00000129,-0.00023025,0.00025339,0.00003886,-0.0002
 6786,0.00018914,0.00025154,0.00002979,-0.00003117,-0.00000294,-0.00001
 335,0.00002880,-0.00001594,0.00002455,-0.00004767,-0.00000285,-0.00001
 065,0.00001100,0.00000840,0.00001198,-0.00003359,-0.00001092,-0.000013
 85,0.00000183,-0.00000950,0.00003035,-0.00002815,-0.00001476,-0.000010
 64,0.00001736,0.00001103,0.00001394,-0.00002441,-0.00003336,-0.0000012
 2,0.00001808,0.00002967,0.00002432,-0.00003885,-0.00001920,-0.00000580
 ,0.00000638,0.00000495,0.00006238,0.00003012,-0.00008951,-0.00000265,0
 .00000092,0.00010850,0.00003451,-0.00008956,-0.00005789,-0.00009701,-0
 .00000365,0.00000706,0.00060928,0.00094529,-0.00021559,-0.00069066,0.0
 0082994,0.00042463,-0.00033951,-0.00004921,-0.00001105,-0.00271515,-0.
 00250627,-0.00016373,-0.00053363,-0.00053478,0.00017386,-0.00031392,-0
 .00072511,0.00000846,0.00040675,-0.00050107,-0.00043177,0.00050277,-0.
 00059100,-0.00016334,0.00035419,0.00006112,0.00047657,-0.00037055,0.00
 053503,-0.00100048,0.00016721,-0.00038158,0.00067068,0.00029782,-0.000
 30674,0.00077227,-0.00008099,-0.00005033,-0.00028468,-0.00028329,0.000
 24316,-0.00045229,0.00000468,0.00002100,0.00002797,-0.00001113,-0.0000
 0859,0.00003012,0.00000130,-0.00003564,0.00006220,0.00006203,-0.000020
 00,0.00005597,0.00001114,-0.00001943,-0.00002457,0.00000543,-0.0000003
 9,0.00005024,-0.00000501,-0.00000046,-0.00001278,-0.00000782,-0.000013
 72,-0.00000635,0.00001750,-0.00000950,0.00003760,-0.00000288,0.0000037
 8,-0.00001540,-0.00000449,0.00002720,-0.00004444,0.00000827,-0.0000212
 4,0.00005248,0.00000332,0.00000575,-0.00002280,-0.00001812,0.00004225,
 -0.00003160,0.00002072,-0.00006313,0.00006076,-0.00005465,0.00000274,-
 0.00005723,0.00006780,-0.00004398,0.00000523,-0.00013617,0.00012205,0.
 00000236,0.00092113,0.00008080,-0.00001358,-0.00025017,-0.00011234,0.0
 0010193,-0.00027904,-0.00010551,-0.00011532,-0.00026876,0.00012101,0.0
 0000980,-0.15638890,-0.09939460,-0.01435370,0.01894559,0.00289430,-0.0
 0453931,0.01793391,-0.00135120,0.00653996,0.15702806,-0.00006623,0.000
 13759,-0.00002534,0.00001433,-0.00001135,0.00000117,-0.00014360,-0.000
 13652,0.00002289,0.00015800,0.00009317,-0.00000121,-0.00001854,0.00000
 303,-0.00000215,-0.00032709,-0.00004262,-0.00000428,-0.00096349,0.0014
 1615,0.00017156,0.00317040,-0.00493266,-0.00003151,-0.00003832,0.00304
 277,0.00010909,-0.01193272,-0.01263323,-0.00288995,-0.00303348,0.00181
 965,-0.00012967,0.00046563,0.00063520,0.00001451,0.00033140,0.00024979
 ,-0.00001263,0.00022682,0.00020735,0.00002236,0.00005825,0.00011279,-0
 .00003349,0.00014013,0.00008841,0.00001253,0.00000501,-0.00001990,0.00
 000151,0.00000211,0.00001742,-0.00000919,-0.00000859,-0.00002072,0.000
 00850,0.00000342,0.00001134,0.00000032,-0.00000737,-0.00000969,0.00000
 511,-0.00000385,0.00001202,0.00000540,-0.00000994,-0.00001620,0.000000
 24,0.00000353,0.00000449,-0.00000571,-0.00000490,-0.00001705,-0.000005
 37,0.00001140,0.00000999,0.00000295,-0.00002156,-0.00001309,0.00000532
 ,0.00000663,0.00000840,-0.00000744,-0.00001129,-0.00001234,-0.00001256
 ,0.00000963,0.00000486,0.00000669,-0.00002425,-0.00001476,-0.00000280,
 0.00000954,0.00000983,0.00000633,0.00007785,0.00003454,0.00017801,0.00
 025972,0.00018534,-0.00026240,-0.00006830,-0.00000264,-0.00005725,0.00
 002178,0.00001071,0.00000631,0.00001670,-0.00001004,0.00000618,-0.0000
 3922,-0.00002953,-0.00001901,-0.00003822,0.00001356,-0.00003360,-0.000
 04019,-0.00003333,-0.00002418,0.00001364,0.00000835,0.00001522,0.00002
 009,-0.00000913,0.00005740,-0.00005614,-0.00003401,0.00008058,-0.00003
 720,0.00003947,-0.00004459,0.00000646,-0.00000873,-0.00003367,-0.00001
 207,-0.00005296,0.00003539,-0.00002132,0.00006216,0.00029255,0.0002071
 2,0.00002781,0.00020762,-0.00001742,-0.00012373,-0.00005543,-0.0001883
 3,0.00012217,-0.00030034,0.00033413,0.00026599,-0.00003205,0.00063484,
 -0.00007467,0.00021354,0.00001689,0.00009933,0.00002769,-0.00048377,-0
 .00104694,0.00001433,-0.00029053,-0.00019281,0.00008198,-0.00021995,-0
 .00024813,0.00000386,-0.00020060,-0.00007389,-0.00015949,-0.00054535,-
 0.00012272,-0.00006375,-0.00002845,0.00030853,-0.00009053,0.00031777,0
 .00021378,0.00004546,-0.00011172,-0.00017219,0.00016853,-0.00035224,-0
 .00012337,0.00009490,0.00002498,0.00009252,-0.00007704,0.00017828,-0.0
 0015218,-0.00020550,-0.00004795,-0.00004291,-0.00000665,-0.00002203,-0
 .00002303,-0.00001101,-0.00000100,0.00007145,0.00002180,0.00020745,0.0
 0036273,-0.00002410,0.00000861,0.00000466,-0.00001262,0.00001119,0.000
 00190,0.00002438,-0.00003193,-0.00000913,0.00000900,-0.00003329,-0.000
 01991,0.00000699,0.00001619,0.00000818,0.00000569,0.00000186,0.0000453
 7,0.00000587,0.00001742,-0.00006481,-0.00008293,-0.00000366,-0.0000266
 2,0.00002299,-0.00006371,0.00000970,0.00003080,-0.00001034,0.00002167,
 0.00001870,-0.00005640,-0.00008689,0.00008246,-0.00017303,-0.00024025,
 -0.00004722,0.00000615,0.00002163,-0.00001265,-0.00025138,0.00002009,-
 0.00000673,0.00044662,-0.00003332,-0.00000559,-0.00011378,-0.00003033,
 0.00003424,-0.00012928,-0.00003119,-0.00004443,-0.00014512,0.00009402,
 0.00000644,-0.10645981,-0.23181711,-0.02162288,-0.00881220,-0.04783743
 ,-0.04243483,-0.01392497,-0.06661184,0.03030914,0.14218415,0.35723600,
 0.00000467,0.00001625,0.00001003,0.00000055,0.00000186,-0.00000404,-0.
 00002722,-0.00000653,0.00000632,0.00001259,-0.00000185,0.00000064,-0.0
 0000244,0.00000063,-0.00000380,-0.00003232,-0.00000249,0.00000757,-0.0
 0016548,0.00005485,-0.00000478,0.00037007,-0.00056293,-0.00031083,-0.0
 0012107,0.00025194,-0.00025350,-0.00266515,-0.00407554,0.00892024,-0.0
 0071411,0.00044119,0.00154499,0.00000504,0.00003886,-0.00017181,0.0001
 0752,0.00002199,-0.00007319,0.00001638,0.00001422,0.00008815,0.0000115
 0,0.00002975,-0.00002851,0.00002443,0.00001219,-0.00000549,-0.00000627
 ,-0.00000282,0.00000703,0.00000266,-0.00000425,-0.00000566,0.00000061,
 -0.00000302,0.00000333,-0.00000485,0.00000414,0.00000050,-0.00000138,-
 0.00000448,0.00000598,-0.00000252,0.00000327,0.00000039,-0.00000239,-0
 .00000282,-0.00000086,0.00000378,-0.00000012,0.00000275,-0.00000235,-0
 .00000495,-0.00000608,0.00000085,0.00000416,0.00000275,-0.00000342,-0.
 00000278,0.00000133,0.00000276,-0.00000091,0.00000144,-0.00000211,-0.0
 0000190,0.00000020,0.00000370,-0.00000168,0.00000043,-0.00000370,-0.00
 000246,-0.00000002,-0.00000014,0.00000495,0.00000254,0.00003990,-0.000
 01270,0.00002344,0.00021660,0.00002954,-0.00018933,-0.00002447,0.00000
 408,-0.00001083,-0.00000046,-0.00000308,0.00000740,0.00000380,-0.00000
 216,-0.00000150,-0.00000664,-0.00000947,-0.00000295,0.00000121,0.00002
 468,-0.00000902,-0.00000994,-0.00000918,-0.00000036,0.00000126,0.00000
 325,0.00000438,0.00000377,-0.00001185,0.00002135,-0.00008273,-0.000038
 07,0.00001563,0.00002243,0.00001353,-0.00000982,0.00000308,0.00001093,
 0.00000742,-0.00000209,-0.00003632,0.00001736,-0.00018419,-0.00002452,
 0.00001757,0.00017889,0.00001750,0.00014184,0.00000216,-0.00001693,0.0
 0001640,-0.00004140,0.00005492,-0.00018679,0.00007665,0.00006358,-0.00
 005134,0.00011570,-0.00003601,-0.00009661,-0.00002960,0.00002555,-0.00
 002367,-0.00007995,-0.00020635,-0.00078726,-0.00006264,-0.00004622,0.0
 0003617,-0.00004174,-0.00004499,0.00002599,-0.00006874,0.00001261,0.00
 008898,-0.00011212,0.00000448,0.00016440,0.00002433,-0.00000699,0.0001
 7971,-0.00027143,-0.00000313,-0.00045729,0.00011486,-0.00000044,0.0002
 1928,0.00027498,0.00006087,0.00033481,-0.00005509,-0.00007661,-0.00008
 757,-0.00012274,0.00007707,-0.00013568,0.00001796,0.00002350,0.0000125
 8,0.00001562,0.00000598,0.00000928,-0.00005801,-0.00005814,0.00002912,
 -0.00008802,-0.00014508,0.00005949,-0.00000944,-0.00000481,-0.00000873
 ,-0.00000326,-0.00000545,0.00001838,0.00001392,0.00001047,-0.00000672,
 0.00001215,0.00000782,-0.00000686,0.00000082,-0.00000851,0.00001603,-0
 .00000902,-0.00001107,-0.00000624,0.00003065,0.00003008,0.00001360,0.0
 0001015,0.00001881,0.00000488,0.00000847,0.00000145,-0.00000445,0.0000
 1380,0.00004064,-0.00003682,0.00002604,0.00000738,-0.00000481,0.000054
 77,0.00006966,-0.00003335,0.00000515,-0.00000299,-0.00001084,-0.000026
 45,0.00000929,-0.00001077,0.00007302,0.00000347,-0.00004421,-0.0000219
 6,-0.00001328,0.00002190,-0.00001879,-0.00000303,0.00000625,-0.0000222
 0,0.00001170,0.00000792,-0.01494512,-0.02107310,-0.07835914,-0.0139833
 9,-0.05258279,-0.01768242,0.01314584,0.04119243,0.00295662,0.01906357,
 0.03643920,0.08404917\\0.00001258,-0.00000424,0.00000608,0.00000423,-0
 .00000713,-0.00000417,-0.00001806,0.00001003,0.00000403,-0.00000403,-0
 .00001331,-0.00000217,-0.00000490,0.00000133,-0.00000057,-0.00000034,-
 0.00000008,0.00000033,0.00000036,0.00000007,0.00000009,0.00000326,-0.0
 0000218,-0.00000106,-0.00000300,0.00000153,0.00000150,-0.00000730,0.00
 000054,0.00000226,0.00000785,0.00000152,0.00000246,0.00000051,0.000006
 98,0.00000070,0.00000085,-0.00000291,0.00000021,-0.00000196,0.00000931
 ,-0.00000180,0.00000512,0.00000120,-0.00000138,0.00000336,-0.00000103,
 -0.00000205,-0.00000626,-0.00000299,0.00000321,0.00000185,-0.00000129,
 -0.00000126,0.00000201,0.00000069,-0.00000080,0.00000243,-0.00000237,-
 0.00000071,0.00000311,0.00000767,-0.00000554,0.00000051,-0.00000362,-0
 .00000130,0.00000243,-0.00000455,0.00000084,-0.00000021,-0.00000382,-0
 .00000146,-0.00000448,-0.00000496,-0.00000540,0.00000097,0.00000189,0.
 00000071,0.00000628,0.00000044,-0.00000071,0.00000385,-0.00000157,0.00
 000492,-0.00000028,-0.00000996,0.00000889,0.00000010,0.00000448,-0.000
 00091,0.00000298,-0.00000078,-0.00000081,0.00000350,-0.00000193,-0.000
 00277,-0.00000435,-0.00000035,-0.00000106,0.00000817,-0.00000171,-0.00
 000537,0.00000546,0.00000137,0.00001020,0.00000337,0.00000073,-0.00000
 272,0.00000456,-0.00000181,-0.00000043,0.00000340,0.00000147,-0.000002
 20,0.00000462,0.00000484,0.00000582,0.00000125,0.00000067,-0.00000034,
 0.00000312,0.00000124,-0.00000034,0.00000196,0.00000016,0.00000062,0.0
 0000630,0.00000883,-0.00000283,-0.00000205,0.00000011,-0.00000188,0.00
 000160,0.00000052,0.00000031,-0.00000495,-0.00000337,0.00000298,-0.000
 00174,0.00000120,-0.00000062,-0.00000008,0.00000279,-0.00000120,0.0000
 0070,0.00000216,-0.00000203,-0.00000249,-0.00000523,-0.00000264,-0.000
 00448,-0.00001150,-0.00000379,0.00000862,-0.00000531,0.00000468,-0.000
 01362,-0.00002034,-0.00000311,-0.00000861,-0.00000345,-0.00000592,-0.0
 0000828,0.00000082,0.00000387,0.00000472,0.00000773,0.00000129,0.00000
 171,0.00000614,0.00000218,-0.00001053,0.00000520,-0.00000093,0.0000030
 1,0.00001148,0.00000206,-0.00000208,-0.00000270,0.00000386,0.00000106,
 -0.00000509,0.00000387,0.00000551,0.00000454,-0.00000032,0.00000566,0.
 00000018,0.00000538,-0.00000898,-0.00000201,-0.00000395,-0.00000810,-0
 .00000162,-0.00000136,-0.00000605,0.00000111,-0.00000509,0.00000560,0.
 00000386,-0.00000275,0.00000189,0.00000263,0.00000076,-0.00000068,-0.0
 0000168,0.00000035,-0.00000053,-0.00000139,-0.00000218,0.00000166,0.00
 000095,0.00000056,0.00000182,0.00000087,0.00000008,0.00000180,0.000001
 61,0.00000185,0.00000189,0.00000030,0.00000026,-0.00000260,0.00000053,
 0.00000216,-0.00000095,0.00000162,0.00000108,-0.00000037,0.00000195,0.
 00000003,-0.00000092,0.00000093,-0.00000122,-0.00000026,0.00000277,0.0
 0000143,0.00000056,0.00000378,-0.00000027,-0.00000340,-0.00000290,-0.0
 0000177,-0.00000312,0.00000218,0.00000173,-0.00000255,-0.00000928,-0.0
 0001390,-0.00000258,0.00001022,0.00000948,0.00000274,-0.00000104,0.000
 00026,0.00000812,-0.00000768,-0.00000056,0.00001030,-0.00000088,0.0000
 0409,-0.00000772,0.00000089,-0.00000032,-0.00000818,0.00000419,-0.0000
 0265,-0.00000831,0.00000785,0.00000114\\\@
 The archive entry for this job was punched.


 GOORD'S AXIOM:  A MEETING IS AN EVENT AT WHICH
 THE MINUTES ARE KEPT AND THE HOURS ARE LOST.
 Job cpu time:       0 days 23 hours 20 minutes  3.8 seconds.
 Elapsed time:       0 days  1 hours 29 minutes 33.8 seconds.
 File lengths (MBytes):  RWF=   6117 Int=      0 D2E=      0 Chk=     41 Scr=      1
 Normal termination of Gaussian 16 at Sat Dec  7 20:17:12 2024.
