/mnt/lustre/scratch/nvme/SLURM/9663625/usccqdma.osLF1EkEFH
OMP_STACKSIZE=0m
GAUSS_PDEF=16
GAUSS_MDEF=65536MB
GAUSS_RDEF=SCF=Direct
 Entering Gaussian System, Link 0=g16.exe
 Initial command:
 /opt/cesga/2020/software/Core/g16/c1/l1.exe "/mnt/lustre/scratch/nvme/SLURM/9663625/usccqdma.osLF1EkEFH/Gau-2869435.inp" -scrdir="/mnt/lustre/scratch/nvme/SLURM/9663625/usccqdma.osLF1EkEFH/"
 Default is to use a total of  16 processors:
                               16 via shared-memory
                                1 via Linda
 Entering Link 1 = /opt/cesga/2020/software/Core/g16/c1/l1.exe PID=   2869461.
  
 Copyright (c) 1988-2019, Gaussian, Inc.  All Rights Reserved.
  
 This is part of the Gaussian(R) 16 program.  It is based on
 the Gaussian(R) 09 system (copyright 2009, Gaussian, Inc.),
 the Gaussian(R) 03 system (copyright 2003, Gaussian, Inc.),
 the Gaussian(R) 98 system (copyright 1998, Gaussian, Inc.),
 the Gaussian(R) 94 system (copyright 1995, Gaussian, Inc.),
 the Gaussian 92(TM) system (copyright 1992, Gaussian, Inc.),
 the Gaussian 90(TM) system (copyright 1990, Gaussian, Inc.),
 the Gaussian 88(TM) system (copyright 1988, Gaussian, Inc.),
 the Gaussian 86(TM) system (copyright 1986, Carnegie Mellon
 University), and the Gaussian 82(TM) system (copyright 1983,
 Carnegie Mellon University). Gaussian is a federally registered
 trademark of Gaussian, Inc.
  
 This software contains proprietary and confidential information,
 including trade secrets, belonging to Gaussian, Inc.
  
 This software is provided under written license and may be
 used, copied, transmitted, or stored only in accord with that
 written license.
  
 The following legend is applicable only to US Government
 contracts under FAR:
  
                    RESTRICTED RIGHTS LEGEND
  
 Use, reproduction and disclosure by the US Government is
 subject to restrictions as set forth in subparagraphs (a)
 and (c) of the Commercial Computer Software - Restricted
 Rights clause in FAR 52.227-19.
  
 Gaussian, Inc.
 340 Quinnipiac St., Bldg. 40, Wallingford CT 06492
  
  
 ---------------------------------------------------------------
 Warning -- This program may not be used in any manner that
 competes with the business of Gaussian, Inc. or will provide
 assistance to any competitor of Gaussian, Inc.  The licensee
 of this program is prohibited from giving any competitor of
 Gaussian, Inc. access to this program.  By using this program,
 the user acknowledges that Gaussian, Inc. is engaged in the
 business of creating and licensing software in the field of
 computational chemistry and represents and warrants to the
 licensee that it is not a competitor of Gaussian, Inc. and that
 it will not use this program in any manner prohibited above.
 ---------------------------------------------------------------
  

 Cite this work as:
 Gaussian 16, Revision C.01,
 M. J. Frisch, G. W. Trucks, H. B. Schlegel, G. E. Scuseria, 
 M. A. Robb, J. R. Cheeseman, G. Scalmani, V. Barone, 
 G. A. Petersson, H. Nakatsuji, X. Li, M. Caricato, A. V. Marenich, 
 J. Bloino, B. G. Janesko, R. Gomperts, B. Mennucci, H. P. Hratchian, 
 J. V. Ortiz, A. F. Izmaylov, J. L. Sonnenberg, D. Williams-Young, 
 F. Ding, F. Lipparini, F. Egidi, J. Goings, B. Peng, A. Petrone, 
 T. Henderson, D. Ranasinghe, V. G. Zakrzewski, J. Gao, N. Rega, 
 G. Zheng, W. Liang, M. Hada, M. Ehara, K. Toyota, R. Fukuda, 
 J. Hasegawa, M. Ishida, T. Nakajima, Y. Honda, O. Kitao, H. Nakai, 
 T. Vreven, K. Throssell, J. A. Montgomery, Jr., J. E. Peralta, 
 F. Ogliaro, M. J. Bearpark, J. J. Heyd, E. N. Brothers, K. N. Kudin, 
 V. N. Staroverov, T. A. Keith, R. Kobayashi, J. Normand, 
 K. Raghavachari, A. P. Rendell, J. C. Burant, S. S. Iyengar, 
 J. Tomasi, M. Cossi, J. M. Millam, M. Klene, C. Adamo, R. Cammi, 
 J. W. Ochterski, R. L. Martin, K. Morokuma, O. Farkas, 
 J. B. Foresman, and D. J. Fox, Gaussian, Inc., Wallingford CT, 2019.
 
 ******************************************
 Gaussian 16:  ES64L-G16RevC.01  3-Jul-2019
                 7-Dec-2024 
 ******************************************
 Default route: SCF=Direct
 ----------------------------------------------------
 # m06/genecp scf=tight int=ultrafine 5d freq=noraman
 ----------------------------------------------------
 1/10=4,30=1,38=1/1,3;
 2/12=2,17=6,18=5,40=1/2;
 3/5=7,8=1,11=2,16=1,17=8,25=1,30=1,71=2,74=-54,75=-5,140=1/1,2,3;
 4//1;
 5/5=2,32=2,38=5,98=1/2;
 8/6=4,10=90,11=11/1;
 11/6=1,8=1,9=11,15=111,16=1/1,2,10;
 10/6=1/2;
 6/7=2,8=2,9=2,10=2,28=1/1;
 7/8=1,10=1,25=1/1,2,3,16;
 1/10=4,30=1/3;
 99//99;
 ------
 OPT-TS
 ------
 Symbolic Z-matrix:
 Charge =  0 Multiplicity = 1
 C                    -1.39399   2.30504   0.92756 
 C                    -2.63398   0.36772   0.65871 
 C                    -3.77867   0.97616   1.15254 
 C                    -3.71036   2.30447   1.56061 
 C                    -2.49793   2.97026   1.46209 
 C                    -0.06154   2.92834   0.77965 
 C                     2.19565   2.56642   0.36789 
 C                     2.47645   3.91547   0.52581 
 C                     1.43348   4.79758   0.79681 
 C                     0.1502    4.29941   0.92657 
 H                    -2.62298  -0.6853    0.36932 
 H                    -4.59139   2.80585   1.95503 
 H                    -2.41635   4.0018    1.79452 
 H                     2.96573   1.82576   0.14355 
 H                     1.63123   5.86398   0.89332 
 H                    -0.68579   4.97266   1.0933 
 N                    -1.48277   1.02264   0.53021 
 N                     0.9512    2.08957   0.48554 
 Ir                    0.373    -0.02709  -0.16304 
 O                    -0.48399  -0.92714   2.50572 
 O                     3.37454  -0.27678  -0.19738 
 O                    -0.53327  -1.86287  -2.381 
 B                     2.16582  -0.87612  -0.58312 
 B                     0.40452  -1.17912   1.46282 
 B                    -0.37492  -1.69784  -0.99808 
 O                    -0.96503  -2.78016  -0.33868 
 O                     1.20458  -2.26918   1.74556 
 C                     0.92988  -2.69217   3.08897 
 C                    -0.47917  -2.07878   3.36412 
 C                    -0.94788  -3.21741  -2.61805 
 C                    -1.68432  -3.56604  -1.29505 
 C                     4.42596  -1.23955  -0.3739 
 C                     3.8425   -2.15148  -1.4896 
 O                     2.43494  -2.06846  -1.24526 
 C                    -1.63231  -2.96881   2.91572 
 H                    -1.7482   -3.84924   3.56259 
 H                    -2.56158  -2.3833    2.96418 
 H                    -1.49432  -3.29305   1.87679 
 C                    -0.70734  -1.629     4.79393 
 H                    -1.71582  -1.2063    4.88997 
 H                    -0.63062  -2.47872   5.48769 
 H                     0.01087  -0.86066   5.1004 
 C                     0.98208  -4.20615   3.13052 
 H                     0.69769  -4.5862    4.12253 
 H                     0.31829  -4.6448    2.37656 
 H                     2.00477  -4.54432   2.91649 
 C                     2.02022  -2.10416   3.97477 
 H                     2.99744  -2.44498   3.60963 
 H                     2.01172  -1.0069    3.9344 
 H                     1.91636  -2.42017   5.02155 
 C                     5.70606  -0.51501  -0.73847 
 H                     6.03447   0.10514   0.10611 
 H                     6.51047  -1.22983  -0.96483 
 H                     5.5694    0.14235  -1.60451 
 C                     4.59551  -1.96838   0.95306 
 H                     4.79446  -1.22651   1.73802 
 H                     3.67604  -2.5052    1.22226 
 H                     5.43552  -2.67618   0.92628 
 C                     4.08716  -1.60958  -2.89271 
 H                     3.46042  -2.17089  -3.59763 
 H                     3.80476  -0.55092  -2.96249 
 H                     5.13656  -1.71531  -3.20026 
 C                     4.26967  -3.6043   -1.41831 
 H                     3.94608  -4.07093  -0.48144 
 H                     3.81479  -4.16258  -2.24761 
 H                     5.3619   -3.70041  -1.50419 
 C                    -3.13215  -3.08703  -1.26351 
 H                    -3.50179  -3.14756  -0.22941 
 H                    -3.21154  -2.03899  -1.58864 
 H                    -3.78891  -3.69699  -1.89849 
 C                    -1.61561  -5.02469  -0.88853 
 H                    -0.58008  -5.34506  -0.73088 
 H                    -2.16371  -5.17597   0.0515 
 H                    -2.07279  -5.66967  -1.65296 
 C                     0.31316  -4.04638  -2.82984 
 H                     0.95216  -4.02879  -1.93815 
 H                     0.07824  -5.08627  -3.09563 
 H                     0.88964  -3.59784  -3.64974 
 C                    -1.81355  -3.26563  -3.86124 
 H                    -2.19421  -4.28317  -4.03181 
 H                    -2.67054  -2.58462  -3.79551 
 H                    -1.21801  -2.97736  -4.73707 
 H                    -0.01471   0.79661  -2.306 
 C                    -2.40859   2.9384   -2.06199 
 O                    -1.73667   3.86118  -1.60908 
 C                    -3.92712   2.99334  -2.05046 
 H                    -4.30703   2.77962  -3.06123 
 H                    -4.31363   2.17658  -1.41877 
 C                    -0.4078    1.73438  -2.7501 
 H                    -0.13459   1.70638  -3.81546 
 H                     0.05267   2.60871  -2.28335 
 N                    -1.84448   1.80989  -2.58689 
 C                    -2.60479   0.69319  -3.11584 
 H                    -3.5046    0.50482  -2.51751 
 H                    -2.90978   0.85507  -4.1621 
 H                    -1.9761   -0.20566  -3.06706 
 C                    -4.4425    4.32937  -1.55338 
 H                    -4.09992   4.52378  -0.52976 
 H                    -4.07031   5.15164  -2.17464 
 C                    -5.05088   0.19066   1.14658 
 F                    -6.02226   0.80244   1.82594 
 F                    -5.48499   0.01435  -0.11251 
 F                    -4.88083  -1.02647   1.66955 
 C                     3.86985   4.44918   0.40781 
 F                     4.26847   4.99293   1.56466 
 F                     4.74755   3.5054    0.07409 
 F                     3.93151   5.41724  -0.51467 
 H                    -5.53857   4.35153  -1.56405 
 

 GradGradGradGradGradGradGradGradGradGradGradGradGradGradGradGradGradGrad
 Berny optimization.
 Initialization pass.
 Trust Radius=3.00D-01 FncErr=1.00D-07 GrdErr=1.00D-07 EigMax=2.50D+02 EigMin=1.00D-04
 Number of steps in this run=      2 maximum allowed number of steps=      2.
 GradGradGradGradGradGradGradGradGradGradGradGradGradGradGradGradGradGrad

 Stoichiometry    C35H53B3F6IrN3O7
 Framework group  C1[X(C35H53B3F6IrN3O7)]
 Deg. of freedom   318
 Full point group                 C1      NOp   1
 Largest Abelian subgroup         C1      NOp   1
 Largest concise Abelian subgroup C1      NOp   1
                         Standard orientation:                         
 ---------------------------------------------------------------------
 Center     Atomic      Atomic             Coordinates (Angstroms)
 Number     Number       Type             X           Y           Z
 ---------------------------------------------------------------------
      1          6           0       -1.393986    2.305042    0.927560
      2          6           0       -2.633978    0.367724    0.658710
      3          6           0       -3.778668    0.976166    1.152540
      4          6           0       -3.710356    2.304475    1.560610
      5          6           0       -2.497925    2.970264    1.462090
      6          6           0       -0.061535    2.928341    0.779650
      7          6           0        2.195654    2.566418    0.367890
      8          6           0        2.476456    3.915467    0.525810
      9          6           0        1.433487    4.797579    0.796810
     10          6           0        0.150207    4.299410    0.926570
     11          1           0       -2.622980   -0.685296    0.369320
     12          1           0       -4.591385    2.805857    1.955030
     13          1           0       -2.416344    4.001804    1.794520
     14          1           0        2.965733    1.825756    0.143550
     15          1           0        1.631239    5.863978    0.893320
     16          1           0       -0.685782    4.972661    1.093300
     17          7           0       -1.482768    1.022642    0.530210
     18          7           0        0.951204    2.089569    0.485540
     19         77           0        0.373001   -0.027090   -0.163040
     20          8           0       -0.483990   -0.927139    2.505720
     21          8           0        3.374541   -0.276784   -0.197380
     22          8           0       -0.533271   -1.862869   -2.381000
     23          5           0        2.165820   -0.876122   -0.583120
     24          5           0        0.404519   -1.179120    1.462820
     25          5           0       -0.374921   -1.697839   -0.998080
     26          8           0       -0.965033   -2.780158   -0.338680
     27          8           0        1.204578   -2.269181    1.745560
     28          6           0        0.929877   -2.692171    3.088970
     29          6           0       -0.479172   -2.078779    3.364120
     30          6           0       -0.947883   -3.217408   -2.618050
     31          6           0       -1.684324   -3.566037   -1.295050
     32          6           0        4.425959   -1.239555   -0.373900
     33          6           0        3.842498   -2.151485   -1.489600
     34          8           0        2.434938   -2.068463   -1.245260
     35          6           0       -1.632313   -2.968807    2.915720
     36          1           0       -1.748204   -3.849237    3.562590
     37          1           0       -2.561582   -2.383296    2.964180
     38          1           0       -1.494323   -3.293048    1.876790
     39          6           0       -0.707341   -1.628999    4.793930
     40          1           0       -1.715821   -1.206297    4.889970
     41          1           0       -0.630622   -2.478719    5.487690
     42          1           0        0.010870   -0.860660    5.100400
     43          6           0        0.982075   -4.206151    3.130520
     44          1           0        0.697685   -4.586200    4.122530
     45          1           0        0.318285   -4.644800    2.376560
     46          1           0        2.004765   -4.544322    2.916490
     47          6           0        2.020218   -2.104162    3.974770
     48          1           0        2.997438   -2.444984    3.609630
     49          1           0        2.011720   -1.006902    3.934400
     50          1           0        1.916358   -2.420172    5.021550
     51          6           0        5.706060   -0.515017   -0.738470
     52          1           0        6.034471    0.105132    0.106110
     53          1           0        6.510469   -1.229838   -0.964830
     54          1           0        5.569401    0.142343   -1.604510
     55          6           0        4.595508   -1.968386    0.953060
     56          1           0        4.794459   -1.226516    1.738020
     57          1           0        3.676038   -2.505204    1.222260
     58          1           0        5.435517   -2.676187    0.926280
     59          6           0        4.087159   -1.609585   -2.892710
     60          1           0        3.460418   -2.170894   -3.597630
     61          1           0        3.804760   -0.550925   -2.962490
     62          1           0        5.136559   -1.715316   -3.200260
     63          6           0        4.269666   -3.604305   -1.418310
     64          1           0        3.946076   -4.070935   -0.481440
     65          1           0        3.814785   -4.162585   -2.247610
     66          1           0        5.361896   -3.700417   -1.504190
     67          6           0       -3.132153   -3.087025   -1.263510
     68          1           0       -3.501793   -3.147555   -0.229410
     69          1           0       -3.211542   -2.038985   -1.588640
     70          1           0       -3.788914   -3.696984   -1.898490
     71          6           0       -1.615616   -5.024687   -0.888530
     72          1           0       -0.580086   -5.345059   -0.730880
     73          1           0       -2.163716   -5.175967    0.051500
     74          1           0       -2.072797   -5.669667   -1.652960
     75          6           0        0.313156   -4.046380   -2.829840
     76          1           0        0.952156   -4.028791   -1.938150
     77          1           0        0.078234   -5.086270   -3.095630
     78          1           0        0.889636   -3.597841   -3.649740
     79          6           0       -1.813553   -3.265627   -3.861240
     80          1           0       -2.194215   -4.283167   -4.031810
     81          1           0       -2.670542   -2.584616   -3.795510
     82          1           0       -1.218013   -2.977358   -4.737070
     83          1           0       -0.014708    0.796610   -2.306000
     84          6           0       -2.408585    2.938404   -2.061990
     85          8           0       -1.736664    3.861183   -1.609080
     86          6           0       -3.927115    2.993346   -2.050460
     87          1           0       -4.307025    2.779626   -3.061230
     88          1           0       -4.313626    2.176586   -1.418770
     89          6           0       -0.407797    1.734381   -2.750100
     90          1           0       -0.134587    1.706381   -3.815460
     91          1           0        0.052675    2.608710   -2.283350
     92          7           0       -1.844477    1.809893   -2.586890
     93          6           0       -2.604788    0.693194   -3.115840
     94          1           0       -3.504598    0.504825   -2.517510
     95          1           0       -2.909778    0.855074   -4.162100
     96          1           0       -1.976099   -0.205657   -3.067060
     97          6           0       -4.442493    4.329376   -1.553380
     98          1           0       -4.099913    4.523786   -0.529760
     99          1           0       -4.070302    5.151646   -2.174640
    100          6           0       -5.050879    0.190667    1.146580
    101          9           0       -6.022258    0.802449    1.825940
    102          9           0       -5.484989    0.014358   -0.112510
    103          9           0       -4.880830   -1.026463    1.669550
    104          6           0        3.869857    4.449175    0.407810
    105          9           0        4.268478    4.992925    1.564660
    106          9           0        4.747556    3.505394    0.074090
    107          9           0        3.931518    5.417235   -0.514670
    108          1           0       -5.538563    4.351538   -1.564050
 ---------------------------------------------------------------------
 Rotational constants (GHZ):           0.0542816           0.0481386           0.0367069
 General basis read from cards:  (5D, 7F)
 ======================================================================================================
                                       Pseudopotential Parameters
 ======================================================================================================
  Center     Atomic      Valence      Angular      Power
  Number     Number     Electrons     Momentum     of R      Exponent        Coefficient   SO-Coeffient
 ======================================================================================================
    1          6
                                   No pseudopotential on this center.
    2          6
                                   No pseudopotential on this center.
    3          6
                                   No pseudopotential on this center.
    4          6
                                   No pseudopotential on this center.
    5          6
                                   No pseudopotential on this center.
    6          6
                                   No pseudopotential on this center.
    7          6
                                   No pseudopotential on this center.
    8          6
                                   No pseudopotential on this center.
    9          6
                                   No pseudopotential on this center.
   10          6
                                   No pseudopotential on this center.
   11          1
                                   No pseudopotential on this center.
   12          1
                                   No pseudopotential on this center.
   13          1
                                   No pseudopotential on this center.
   14          1
                                   No pseudopotential on this center.
   15          1
                                   No pseudopotential on this center.
   16          1
                                   No pseudopotential on this center.
   17          7
                                   No pseudopotential on this center.
   18          7
                                   No pseudopotential on this center.
   19         77           17
                                      G and up 
                                                     1      823.5880147       -0.15780140    0.00000000
                                                     2      364.6613336    -1517.52704460    0.00000000
                                                     2       55.7082801     -316.53065290    0.00000000
                                                     2       12.0464544      -91.88809410    0.00000000
                                                     2        3.5120610       -9.22417730    0.00000000
                                      S - G
                                                     0      188.0490770        3.15780140    0.00000000
                                                     1      340.4194712       26.83225770    0.00000000
                                                     2      128.2373673      800.42500070    0.00000000
                                                     2       33.8644961      369.40506830    0.00000000
                                                     2        4.7560005      242.41718990    0.00000000
                                                     2        3.9649974     -118.21732820    0.00000000
                                      P - G
                                                     0      289.7291139        2.15780140    0.00000000
                                                     1       87.4633789       61.96786100    0.00000000
                                                     2       30.4363766      269.05819860    0.00000000
                                                     2        4.0553412      231.16547930    0.00000000
                                                     2        3.5525341     -133.69526670    0.00000000
                                      D - G
                                                     0      136.4017106        3.15780140    0.00000000
                                                     1       95.0776925       45.93498030    0.00000000
                                                     2       49.2258410      359.03446680    0.00000000
                                                     2       15.0874145      176.47401190    0.00000000
                                                     2        4.0405764       54.51552860    0.00000000
                                      F - G
                                                     0      127.3507908        3.95461970    0.00000000
                                                     1       66.2364374       52.97736550    0.00000000
                                                     2       34.4299229      274.86433830    0.00000000
                                                     2       10.1995721      137.20473380    0.00000000
                                                     2        2.5409702       14.86333050    0.00000000
   20          8
                                   No pseudopotential on this center.
   21          8
                                   No pseudopotential on this center.
   22          8
                                   No pseudopotential on this center.
   23          5
                                   No pseudopotential on this center.
   24          5
                                   No pseudopotential on this center.
   25          5
                                   No pseudopotential on this center.
   26          8
                                   No pseudopotential on this center.
   27          8
                                   No pseudopotential on this center.
   28          6
                                   No pseudopotential on this center.
   29          6
                                   No pseudopotential on this center.
   30          6
                                   No pseudopotential on this center.
   31          6
                                   No pseudopotential on this center.
   32          6
                                   No pseudopotential on this center.
   33          6
                                   No pseudopotential on this center.
   34          8
                                   No pseudopotential on this center.
   35          6
                                   No pseudopotential on this center.
   36          1
                                   No pseudopotential on this center.
   37          1
                                   No pseudopotential on this center.
   38          1
                                   No pseudopotential on this center.
   39          6
                                   No pseudopotential on this center.
   40          1
                                   No pseudopotential on this center.
   41          1
                                   No pseudopotential on this center.
   42          1
                                   No pseudopotential on this center.
   43          6
                                   No pseudopotential on this center.
   44          1
                                   No pseudopotential on this center.
   45          1
                                   No pseudopotential on this center.
   46          1
                                   No pseudopotential on this center.
   47          6
                                   No pseudopotential on this center.
   48          1
                                   No pseudopotential on this center.
   49          1
                                   No pseudopotential on this center.
   50          1
                                   No pseudopotential on this center.
   51          6
                                   No pseudopotential on this center.
   52          1
                                   No pseudopotential on this center.
   53          1
                                   No pseudopotential on this center.
   54          1
                                   No pseudopotential on this center.
   55          6
                                   No pseudopotential on this center.
   56          1
                                   No pseudopotential on this center.
   57          1
                                   No pseudopotential on this center.
   58          1
                                   No pseudopotential on this center.
   59          6
                                   No pseudopotential on this center.
   60          1
                                   No pseudopotential on this center.
   61          1
                                   No pseudopotential on this center.
   62          1
                                   No pseudopotential on this center.
   63          6
                                   No pseudopotential on this center.
   64          1
                                   No pseudopotential on this center.
   65          1
                                   No pseudopotential on this center.
   66          1
                                   No pseudopotential on this center.
   67          6
                                   No pseudopotential on this center.
   68          1
                                   No pseudopotential on this center.
   69          1
                                   No pseudopotential on this center.
   70          1
                                   No pseudopotential on this center.
   71          6
                                   No pseudopotential on this center.
   72          1
                                   No pseudopotential on this center.
   73          1
                                   No pseudopotential on this center.
   74          1
                                   No pseudopotential on this center.
   75          6
                                   No pseudopotential on this center.
   76          1
                                   No pseudopotential on this center.
   77          1
                                   No pseudopotential on this center.
   78          1
                                   No pseudopotential on this center.
   79          6
                                   No pseudopotential on this center.
   80          1
                                   No pseudopotential on this center.
   81          1
                                   No pseudopotential on this center.
   82          1
                                   No pseudopotential on this center.
   83          1
                                   No pseudopotential on this center.
   84          6
                                   No pseudopotential on this center.
   85          8
                                   No pseudopotential on this center.
   86          6
                                   No pseudopotential on this center.
   87          1
                                   No pseudopotential on this center.
   88          1
                                   No pseudopotential on this center.
   89          6
                                   No pseudopotential on this center.
   90          1
                                   No pseudopotential on this center.
   91          1
                                   No pseudopotential on this center.
   92          7
                                   No pseudopotential on this center.
   93          6
                                   No pseudopotential on this center.
   94          1
                                   No pseudopotential on this center.
   95          1
                                   No pseudopotential on this center.
   96          1
                                   No pseudopotential on this center.
   97          6
                                   No pseudopotential on this center.
   98          1
                                   No pseudopotential on this center.
   99          1
                                   No pseudopotential on this center.
  100          6
                                   No pseudopotential on this center.
  101          9
                                   No pseudopotential on this center.
  102          9
                                   No pseudopotential on this center.
  103          9
                                   No pseudopotential on this center.
  104          6
                                   No pseudopotential on this center.
  105          9
                                   No pseudopotential on this center.
  106          9
                                   No pseudopotential on this center.
  107          9
                                   No pseudopotential on this center.
  108          1
                                   No pseudopotential on this center.
 ======================================================================================================
 There are   940 symmetry adapted cartesian basis functions of A   symmetry.
 There are   884 symmetry adapted basis functions of A   symmetry.
   884 basis functions,  1767 primitive gaussians,   940 cartesian basis functions
   213 alpha electrons      213 beta electrons
       nuclear repulsion energy      9601.4345660763 Hartrees.
 NAtoms=  108 NActive=  108 NUniq=  108 SFac= 1.00D+00 NAtFMM=   60 NAOKFM=T Big=T
 Integral buffers will be    131072 words long.
 Raffenetti 2 integral format.
 Two-electron integral symmetry is turned on.
 One-electron integrals computed using PRISM.
   1 Symmetry operations used in ECPInt.
 ECPInt:  NShTT=   54615 NPrTT=  339395 LenC2=   40551 LenP2D=  125189.
 LDataN:  DoStor=T MaxTD1= 6 Len=  172
 NBasis=   884 RedAO= T EigKep=  4.52D-04  NBF=   884
 NBsUse=   884 1.00D-06 EigRej= -1.00D+00 NBFU=   884
 Defaulting to unpruned grid for atomic number  77.
 ExpMin= 2.90D-02 ExpMax= 7.00D+03 ExpMxC= 1.05D+03 IAcc=3 IRadAn=         5 AccDes= 0.00D+00
 Harris functional with IExCor= 1009 and IRadAn=       5 diagonalized for initial guess.
 HarFok:  IExCor= 1009 AccDes= 0.00D+00 IRadAn=         5 IDoV= 1 UseB2=F ITyADJ=14
 ICtDFT=  3500011 ScaDFX=  1.000000  1.000000  1.000000  1.000000
 Defaulting to unpruned grid for atomic number  77.
 FoFCou: FMM=F IPFlag=           0 FMFlag=      100000 FMFlg1=        2001
         NFxFlg=           0 DoJE=T BraDBF=F KetDBF=T FulRan=T
         wScrn=  0.000000 ICntrl=       500 IOpCl=  0 I1Cent=   200000004 NGrid=           0
         NMat0=    1 NMatS0=      1 NMatT0=    0 NMatD0=    1 NMtDS0=    0 NMtDT0=    0
 Petite list used in FoFCou.
 Requested convergence on RMS density matrix=1.00D-08 within 128 cycles.
 Requested convergence on MAX density matrix=1.00D-06.
 Requested convergence on             energy=1.00D-06.
 No special actions if energy rises.
 Defaulting to unpruned grid for atomic number  77.
 Defaulting to unpruned grid for atomic number  77.
 Defaulting to unpruned grid for atomic number  77.
 Defaulting to unpruned grid for atomic number  77.
 Defaulting to unpruned grid for atomic number  77.
 Defaulting to unpruned grid for atomic number  77.
 Defaulting to unpruned grid for atomic number  77.
 Defaulting to unpruned grid for atomic number  77.
 Defaulting to unpruned grid for atomic number  77.
 Defaulting to unpruned grid for atomic number  77.
 Defaulting to unpruned grid for atomic number  77.
 Defaulting to unpruned grid for atomic number  77.
 Defaulting to unpruned grid for atomic number  77.
 Defaulting to unpruned grid for atomic number  77.
 Defaulting to unpruned grid for atomic number  77.
 Defaulting to unpruned grid for atomic number  77.
 SCF Done:  E(RM06) =  -2833.57916499     A.U. after   16 cycles
            NFock= 16  Conv=0.47D-08     -V/T= 2.0320
 DoSCS=F DFT=T ScalE2(SS,OS)=  1.000000  1.000000
 Range of M.O.s used for correlation:     1   884
 NBasis=   884 NAE=   213 NBE=   213 NFC=     0 NFV=     0
 NROrb=    884 NOA=   213 NOB=   213 NVA=   671 NVB=   671
   1 Symmetry operations used in ECPInt.
 ECPInt:  NShTT=   54615 NPrTT=  339395 LenC2=   40551 LenP2D=  125189.
 LDataN:  DoStor=T MaxTD1= 7 Len=  274
 Number of processors reduced to   7 by ecpmxn.
 Symmetrizing basis deriv contribution to polar:
 IMax=3 JMax=2 DiffMx= 0.00D+00
 G2DrvN: will do   109 centers at a time, making    1 passes.
 Calling FoFCou, ICntrl=  3107 FMM=T I1Cent=   0 AccDes= 0.00D+00.
 Defaulting to unpruned grid for atomic number  77.
 Defaulting to unpruned grid for atomic number  77.
 Defaulting to unpruned grid for atomic number  77.
 Defaulting to unpruned grid for atomic number  77.
 Defaulting to unpruned grid for atomic number  77.
 Defaulting to unpruned grid for atomic number  77.
 Defaulting to unpruned grid for atomic number  77.
 Defaulting to unpruned grid for atomic number  77.
 Defaulting to unpruned grid for atomic number  77.
 Defaulting to unpruned grid for atomic number  77.
 Defaulting to unpruned grid for atomic number  77.
 Defaulting to unpruned grid for atomic number  77.
 Defaulting to unpruned grid for atomic number  77.
 Defaulting to unpruned grid for atomic number  77.
 Defaulting to unpruned grid for atomic number  77.
 Defaulting to unpruned grid for atomic number  77.
 End of G2Drv F.D. properties file   721 does not exist.
 End of G2Drv F.D. properties file   722 does not exist.
 End of G2Drv F.D. properties file   788 does not exist.
          IDoAtm=11111111111111111111111111111111111111111111111111
          IDoAtm=11111111111111111111111111111111111111111111111111
          IDoAtm=11111111
          Differentiating once with respect to electric field.
                with respect to dipole field.
          Differentiating once with respect to nuclear coordinates.
 Defaulting to unpruned grid for atomic number  77.
 CalDSu exits because no D1Ps are significant.
 Defaulting to unpruned grid for atomic number  77.
 Defaulting to unpruned grid for atomic number  77.
 Defaulting to unpruned grid for atomic number  77.
 Defaulting to unpruned grid for atomic number  77.
 Defaulting to unpruned grid for atomic number  77.
 Defaulting to unpruned grid for atomic number  77.
 Defaulting to unpruned grid for atomic number  77.
 Defaulting to unpruned grid for atomic number  77.
 Defaulting to unpruned grid for atomic number  77.
 Defaulting to unpruned grid for atomic number  77.
 Defaulting to unpruned grid for atomic number  77.
 Defaulting to unpruned grid for atomic number  77.
 Defaulting to unpruned grid for atomic number  77.
 Defaulting to unpruned grid for atomic number  77.
 Defaulting to unpruned grid for atomic number  77.
 Defaulting to unpruned grid for atomic number  77.
          There are   327 degrees of freedom in the 1st order CPHF.  IDoFFX=6 NUNeed=     3.
    324 vectors produced by pass  0 Test12= 1.43D-13 1.00D-09 XBig12= 5.04D+02 1.06D+01.
 AX will form    72 AO Fock derivatives at one time.
    324 vectors produced by pass  1 Test12= 1.43D-13 1.00D-09 XBig12= 9.05D+01 1.22D+00.
    324 vectors produced by pass  2 Test12= 1.43D-13 1.00D-09 XBig12= 1.19D+00 1.17D-01.
    324 vectors produced by pass  3 Test12= 1.43D-13 1.00D-09 XBig12= 8.33D-03 1.07D-02.
    324 vectors produced by pass  4 Test12= 1.43D-13 1.00D-09 XBig12= 3.30D-05 4.59D-04.
    285 vectors produced by pass  5 Test12= 1.43D-13 1.00D-09 XBig12= 7.50D-08 1.61D-05.
     88 vectors produced by pass  6 Test12= 1.43D-13 1.00D-09 XBig12= 1.18D-10 7.24D-07.
      3 vectors produced by pass  7 Test12= 1.43D-13 1.00D-09 XBig12= 1.62D-13 3.00D-08.
      1 vectors produced by pass  8 Test12= 1.43D-13 1.00D-09 XBig12= 2.28D-16 1.02D-09.
 InvSVY:  IOpt=1 It=  1 EMax= 1.07D-14
 Solved reduced A of dimension  1997 with   327 vectors.
 Isotropic polarizability for W=    0.000000      488.91 Bohr**3.
 End of Minotr F.D. properties file   721 does not exist.
 End of Minotr F.D. properties file   722 does not exist.
 End of Minotr F.D. properties file   788 does not exist.
 Hyperfine terms turned off by default for NAtoms > 100.

 **********************************************************************

            Population analysis using the SCF Density.

 **********************************************************************

 Orbital symmetries:
       Occupied  (A) (A) (A) (A) (A) (A) (A) (A) (A) (A) (A) (A)
                 (A) (A) (A) (A) (A) (A) (A) (A) (A) (A) (A) (A)
                 (A) (A) (A) (A) (A) (A) (A) (A) (A) (A) (A) (A)
                 (A) (A) (A) (A) (A) (A) (A) (A) (A) (A) (A) (A)
                 (A) (A) (A) (A) (A) (A) (A) (A) (A) (A) (A) (A)
                 (A) (A) (A) (A) (A) (A) (A) (A) (A) (A) (A) (A)
                 (A) (A) (A) (A) (A) (A) (A) (A) (A) (A) (A) (A)
                 (A) (A) (A) (A) (A) (A) (A) (A) (A) (A) (A) (A)
                 (A) (A) (A) (A) (A) (A) (A) (A) (A) (A) (A) (A)
                 (A) (A) (A) (A) (A) (A) (A) (A) (A) (A) (A) (A)
                 (A) (A) (A) (A) (A) (A) (A) (A) (A) (A) (A) (A)
                 (A) (A) (A) (A) (A) (A) (A) (A) (A) (A) (A) (A)
                 (A) (A) (A) (A) (A) (A) (A) (A) (A) (A) (A) (A)
                 (A) (A) (A) (A) (A) (A) (A) (A) (A) (A) (A) (A)
                 (A) (A) (A) (A) (A) (A) (A) (A) (A) (A) (A) (A)
                 (A) (A) (A) (A) (A) (A) (A) (A) (A) (A) (A) (A)
                 (A) (A) (A) (A) (A) (A) (A) (A) (A) (A) (A) (A)
                 (A) (A) (A) (A) (A) (A) (A) (A) (A)
       Virtual   (A) (A) (A) (A) (A) (A) (A) (A) (A) (A) (A) (A)
                 (A) (A) (A) (A) (A) (A) (A) (A) (A) (A) (A) (A)
                 (A) (A) (A) (A) (A) (A) (A) (A) (A) (A) (A) (A)
                 (A) (A) (A) (A) (A) (A) (A) (A) (A) (A) (A) (A)
                 (A) (A) (A) (A) (A) (A) (A) (A) (A) (A) (A) (A)
                 (A) (A) (A) (A) (A) (A) (A) (A) (A) (A) (A) (A)
                 (A) (A) (A) (A) (A) (A) (A) (A) (A) (A) (A) (A)
                 (A) (A) (A) (A) (A) (A) (A) (A) (A) (A) (A) (A)
                 (A) (A) (A) (A) (A) (A) (A) (A) (A) (A) (A) (A)
                 (A) (A) (A) (A) (A) (A) (A) (A) (A) (A) (A) (A)
                 (A) (A) (A) (A) (A) (A) (A) (A) (A) (A) (A) (A)
                 (A) (A) (A) (A) (A) (A) (A) (A) (A) (A) (A) (A)
                 (A) (A) (A) (A) (A) (A) (A) (A) (A) (A) (A) (A)
                 (A) (A) (A) (A) (A) (A) (A) (A) (A) (A) (A) (A)
                 (A) (A) (A) (A) (A) (A) (A) (A) (A) (A) (A) (A)
                 (A) (A) (A) (A) (A) (A) (A) (A) (A) (A) (A) (A)
                 (A) (A) (A) (A) (A) (A) (A) (A) (A) (A) (A) (A)
                 (A) (A) (A) (A) (A) (A) (A) (A) (A) (A) (A) (A)
                 (A) (A) (A) (A) (A) (A) (A) (A) (A) (A) (A) (A)
                 (A) (A) (A) (A) (A) (A) (A) (A) (A) (A) (A) (A)
                 (A) (A) (A) (A) (A) (A) (A) (A) (A) (A) (A) (A)
                 (A) (A) (A) (A) (A) (A) (A) (A) (A) (A) (A) (A)
                 (A) (A) (A) (A) (A) (A) (A) (A) (A) (A) (A) (A)
                 (A) (A) (A) (A) (A) (A) (A) (A) (A) (A) (A) (A)
                 (A) (A) (A) (A) (A) (A) (A) (A) (A) (A) (A) (A)
                 (A) (A) (A) (A) (A) (A) (A) (A) (A) (A) (A) (A)
                 (A) (A) (A) (A) (A) (A) (A) (A) (A) (A) (A) (A)
                 (A) (A) (A) (A) (A) (A) (A) (A) (A) (A) (A) (A)
                 (A) (A) (A) (A) (A) (A) (A) (A) (A) (A) (A) (A)
                 (A) (A) (A) (A) (A) (A) (A) (A) (A) (A) (A) (A)
                 (A) (A) (A) (A) (A) (A) (A) (A) (A) (A) (A) (A)
                 (A) (A) (A) (A) (A) (A) (A) (A) (A) (A) (A) (A)
                 (A) (A) (A) (A) (A) (A) (A) (A) (A) (A) (A) (A)
                 (A) (A) (A) (A) (A) (A) (A) (A) (A) (A) (A) (A)
                 (A) (A) (A) (A) (A) (A) (A) (A) (A) (A) (A) (A)
                 (A) (A) (A) (A) (A) (A) (A) (A) (A) (A) (A) (A)
                 (A) (A) (A) (A) (A) (A) (A) (A) (A) (A) (A) (A)
                 (A) (A) (A) (A) (A) (A) (A) (A) (A) (A) (A) (A)
                 (A) (A) (A) (A) (A) (A) (A) (A) (A) (A) (A) (A)
                 (A) (A) (A) (A) (A) (A) (A) (A) (A) (A) (A) (A)
                 (A) (A) (A) (A) (A) (A) (A) (A) (A) (A) (A) (A)
                 (A) (A) (A) (A) (A) (A) (A) (A) (A) (A) (A) (A)
                 (A) (A) (A) (A) (A) (A) (A) (A) (A) (A) (A) (A)
                 (A) (A) (A) (A) (A) (A) (A) (A) (A) (A) (A) (A)
                 (A) (A) (A) (A) (A) (A) (A) (A) (A) (A) (A) (A)
                 (A) (A) (A) (A) (A) (A) (A) (A) (A) (A) (A) (A)
                 (A) (A) (A) (A) (A) (A) (A) (A) (A) (A) (A) (A)
                 (A) (A) (A) (A) (A) (A) (A) (A) (A) (A) (A) (A)
                 (A) (A) (A) (A) (A) (A) (A) (A) (A) (A) (A) (A)
                 (A) (A) (A) (A) (A) (A) (A) (A) (A) (A) (A) (A)
                 (A) (A) (A) (A) (A) (A) (A) (A) (A) (A) (A) (A)
                 (A) (A) (A) (A) (A) (A) (A) (A) (A) (A) (A) (A)
                 (A) (A) (A) (A) (A) (A) (A) (A) (A) (A) (A) (A)
                 (A) (A) (A) (A) (A) (A) (A) (A) (A) (A) (A) (A)
                 (A) (A) (A) (A) (A) (A) (A) (A) (A) (A) (A) (A)
                 (A) (A) (A) (A) (A) (A) (A) (A) (A) (A) (A)
 The electronic state is 1-A.
 Alpha  occ. eigenvalues --  -24.84144 -24.83646 -24.83525 -24.83201 -24.82707
 Alpha  occ. eigenvalues --  -24.82637 -19.20113 -19.20060 -19.19906 -19.19854
 Alpha  occ. eigenvalues --  -19.19599 -19.19397 -19.19097 -14.45830 -14.45536
 Alpha  occ. eigenvalues --  -14.43200 -10.52277 -10.51432 -10.35071 -10.33441
 Alpha  occ. eigenvalues --  -10.33258 -10.32230 -10.31372 -10.30691 -10.30250
 Alpha  occ. eigenvalues --  -10.30211 -10.29710 -10.29670 -10.29299 -10.29246
 Alpha  occ. eigenvalues --  -10.29122 -10.29099 -10.29083 -10.28595 -10.28503
 Alpha  occ. eigenvalues --  -10.27537 -10.27303 -10.25892 -10.23990 -10.23053
 Alpha  occ. eigenvalues --  -10.22941 -10.22718 -10.22633 -10.22334 -10.22308
 Alpha  occ. eigenvalues --  -10.22178 -10.22083 -10.21846 -10.21579 -10.21407
 Alpha  occ. eigenvalues --  -10.21323  -6.80193  -6.78775  -6.78121  -3.60732
 Alpha  occ. eigenvalues --   -2.03470  -2.02652  -2.02322  -1.36608  -1.35796
 Alpha  occ. eigenvalues --   -1.28181  -1.27554  -1.27308  -1.26750  -1.06003
 Alpha  occ. eigenvalues --   -1.05808  -1.05248  -1.05244  -1.01359  -0.99169
 Alpha  occ. eigenvalues --   -0.98911  -0.98873  -0.98302  -0.94894  -0.87235
 Alpha  occ. eigenvalues --   -0.86263  -0.84579  -0.80986  -0.80278  -0.80076
 Alpha  occ. eigenvalues --   -0.79649  -0.79434  -0.76128  -0.74764  -0.74542
 Alpha  occ. eigenvalues --   -0.74137  -0.72994  -0.72939  -0.70785  -0.70326
 Alpha  occ. eigenvalues --   -0.70065  -0.69706  -0.69700  -0.69165  -0.67560
 Alpha  occ. eigenvalues --   -0.67252  -0.66971  -0.66838  -0.65743  -0.64044
 Alpha  occ. eigenvalues --   -0.62642  -0.62571  -0.61781  -0.61769  -0.61642
 Alpha  occ. eigenvalues --   -0.61250  -0.61082  -0.60804  -0.60448  -0.57238
 Alpha  occ. eigenvalues --   -0.54862  -0.54651  -0.54496  -0.54321  -0.53875
 Alpha  occ. eigenvalues --   -0.53329  -0.53011  -0.52523  -0.52037  -0.51529
 Alpha  occ. eigenvalues --   -0.50460  -0.50151  -0.49963  -0.49829  -0.49183
 Alpha  occ. eigenvalues --   -0.49063  -0.48626  -0.48220  -0.47816  -0.47484
 Alpha  occ. eigenvalues --   -0.47047  -0.46867  -0.46620  -0.46464  -0.46300
 Alpha  occ. eigenvalues --   -0.46063  -0.45945  -0.45858  -0.45647  -0.45474
 Alpha  occ. eigenvalues --   -0.45328  -0.45100  -0.44585  -0.44313  -0.44078
 Alpha  occ. eigenvalues --   -0.43905  -0.43815  -0.43611  -0.43551  -0.43426
 Alpha  occ. eigenvalues --   -0.43032  -0.43009  -0.42944  -0.42724  -0.41624
 Alpha  occ. eigenvalues --   -0.40751  -0.40663  -0.40386  -0.40024  -0.40000
 Alpha  occ. eigenvalues --   -0.39853  -0.39673  -0.39594  -0.39497  -0.39450
 Alpha  occ. eigenvalues --   -0.39305  -0.39165  -0.39054  -0.38837  -0.38756
 Alpha  occ. eigenvalues --   -0.38640  -0.38306  -0.38257  -0.37458  -0.37246
 Alpha  occ. eigenvalues --   -0.36957  -0.36901  -0.36709  -0.36469  -0.36239
 Alpha  occ. eigenvalues --   -0.36042  -0.35844  -0.35793  -0.35777  -0.35556
 Alpha  occ. eigenvalues --   -0.35265  -0.34793  -0.34485  -0.34413  -0.34142
 Alpha  occ. eigenvalues --   -0.33562  -0.32583  -0.32478  -0.32099  -0.31967
 Alpha  occ. eigenvalues --   -0.31298  -0.31072  -0.30839  -0.29996  -0.29749
 Alpha  occ. eigenvalues --   -0.29481  -0.29277  -0.28338  -0.26874  -0.26575
 Alpha  occ. eigenvalues --   -0.25971  -0.25732  -0.25382  -0.25196  -0.24484
 Alpha  occ. eigenvalues --   -0.21695  -0.21266  -0.20738
 Alpha virt. eigenvalues --   -0.09000  -0.05359  -0.04206  -0.00957   0.00361
 Alpha virt. eigenvalues --    0.03193   0.03372   0.04942   0.06206   0.06671
 Alpha virt. eigenvalues --    0.07241   0.07656   0.09044   0.09356   0.09543
 Alpha virt. eigenvalues --    0.10145   0.10625   0.11313   0.11820   0.12245
 Alpha virt. eigenvalues --    0.12415   0.12591   0.12748   0.13151   0.13315
 Alpha virt. eigenvalues --    0.13621   0.13648   0.14037   0.14232   0.14503
 Alpha virt. eigenvalues --    0.14740   0.14771   0.15133   0.15463   0.15481
 Alpha virt. eigenvalues --    0.15658   0.15752   0.15925   0.16225   0.16419
 Alpha virt. eigenvalues --    0.16448   0.16691   0.16920   0.17103   0.17201
 Alpha virt. eigenvalues --    0.17669   0.17721   0.17804   0.18062   0.18497
 Alpha virt. eigenvalues --    0.18597   0.18736   0.19126   0.19148   0.19295
 Alpha virt. eigenvalues --    0.19563   0.19812   0.19974   0.20124   0.20253
 Alpha virt. eigenvalues --    0.20453   0.20719   0.20942   0.21063   0.21205
 Alpha virt. eigenvalues --    0.21322   0.21552   0.21760   0.22054   0.22303
 Alpha virt. eigenvalues --    0.22422   0.22442   0.23029   0.23107   0.23342
 Alpha virt. eigenvalues --    0.23436   0.23734   0.23817   0.24060   0.24357
 Alpha virt. eigenvalues --    0.24523   0.24696   0.24882   0.25237   0.25440
 Alpha virt. eigenvalues --    0.25865   0.25999   0.26316   0.26492   0.26691
 Alpha virt. eigenvalues --    0.27080   0.27181   0.27417   0.27751   0.27891
 Alpha virt. eigenvalues --    0.28576   0.28751   0.29334   0.29529   0.30539
 Alpha virt. eigenvalues --    0.31074   0.31308   0.31956   0.32250   0.32996
 Alpha virt. eigenvalues --    0.33244   0.33682   0.34656   0.34952   0.35599
 Alpha virt. eigenvalues --    0.36112   0.36871   0.37381   0.37799   0.38073
 Alpha virt. eigenvalues --    0.38467   0.39206   0.39675   0.40507   0.41210
 Alpha virt. eigenvalues --    0.41676   0.42949   0.45570   0.45882   0.46427
 Alpha virt. eigenvalues --    0.47352   0.47828   0.48284   0.48655   0.49020
 Alpha virt. eigenvalues --    0.49703   0.50141   0.50357   0.50629   0.51056
 Alpha virt. eigenvalues --    0.51235   0.51415   0.51801   0.52212   0.52246
 Alpha virt. eigenvalues --    0.52864   0.53022   0.53408   0.53948   0.54364
 Alpha virt. eigenvalues --    0.54726   0.54885   0.55771   0.56053   0.56275
 Alpha virt. eigenvalues --    0.56561   0.56600   0.57091   0.57469   0.57631
 Alpha virt. eigenvalues --    0.57960   0.58134   0.58446   0.58610   0.58950
 Alpha virt. eigenvalues --    0.59376   0.59492   0.59718   0.60150   0.60344
 Alpha virt. eigenvalues --    0.60451   0.61010   0.61480   0.61812   0.61978
 Alpha virt. eigenvalues --    0.62212   0.62332   0.62726   0.63123   0.63770
 Alpha virt. eigenvalues --    0.64056   0.64507   0.64742   0.65058   0.65554
 Alpha virt. eigenvalues --    0.65720   0.66068   0.66832   0.67294   0.67338
 Alpha virt. eigenvalues --    0.67659   0.68199   0.68591   0.68770   0.69566
 Alpha virt. eigenvalues --    0.69849   0.70104   0.70469   0.70881   0.70981
 Alpha virt. eigenvalues --    0.71170   0.71223   0.71650   0.72014   0.72153
 Alpha virt. eigenvalues --    0.72491   0.72682   0.73053   0.73549   0.74093
 Alpha virt. eigenvalues --    0.74265   0.74783   0.74791   0.75025   0.75398
 Alpha virt. eigenvalues --    0.75607   0.76236   0.76448   0.77278   0.77597
 Alpha virt. eigenvalues --    0.77974   0.78473   0.78997   0.79245   0.79417
 Alpha virt. eigenvalues --    0.79887   0.80072   0.81366   0.81890   0.82111
 Alpha virt. eigenvalues --    0.82437   0.82567   0.82899   0.83269   0.83388
 Alpha virt. eigenvalues --    0.83946   0.84170   0.84332   0.84736   0.84790
 Alpha virt. eigenvalues --    0.84847   0.85160   0.85354   0.85739   0.86210
 Alpha virt. eigenvalues --    0.86624   0.86860   0.87178   0.87364   0.87676
 Alpha virt. eigenvalues --    0.87728   0.87968   0.88024   0.88417   0.88755
 Alpha virt. eigenvalues --    0.89141   0.89323   0.89456   0.89616   0.90048
 Alpha virt. eigenvalues --    0.90273   0.90432   0.90599   0.90892   0.90974
 Alpha virt. eigenvalues --    0.91139   0.91604   0.92050   0.92232   0.92520
 Alpha virt. eigenvalues --    0.92745   0.93254   0.93631   0.93723   0.94144
 Alpha virt. eigenvalues --    0.94426   0.94752   0.94929   0.95288   0.95893
 Alpha virt. eigenvalues --    0.95983   0.96076   0.96661   0.96856   0.97091
 Alpha virt. eigenvalues --    0.97489   0.98065   0.98470   0.98688   0.99143
 Alpha virt. eigenvalues --    0.99674   0.99836   1.00189   1.01257   1.01334
 Alpha virt. eigenvalues --    1.01633   1.01956   1.02399   1.02656   1.02945
 Alpha virt. eigenvalues --    1.03176   1.04094   1.04737   1.04876   1.05206
 Alpha virt. eigenvalues --    1.05364   1.06684   1.07176   1.07587   1.08058
 Alpha virt. eigenvalues --    1.08459   1.09297   1.09846   1.10093   1.10363
 Alpha virt. eigenvalues --    1.10965   1.11557   1.12036   1.12964   1.13326
 Alpha virt. eigenvalues --    1.14013   1.14567   1.15058   1.15909   1.16545
 Alpha virt. eigenvalues --    1.16803   1.17540   1.17844   1.18077   1.18836
 Alpha virt. eigenvalues --    1.19507   1.20049   1.20211   1.20623   1.21261
 Alpha virt. eigenvalues --    1.21938   1.22044   1.22641   1.23069   1.23750
 Alpha virt. eigenvalues --    1.24144   1.24418   1.25247   1.25570   1.26740
 Alpha virt. eigenvalues --    1.27544   1.27750   1.28269   1.28806   1.29494
 Alpha virt. eigenvalues --    1.30906   1.31054   1.31833   1.32516   1.33213
 Alpha virt. eigenvalues --    1.33662   1.34039   1.34097   1.34440   1.34602
 Alpha virt. eigenvalues --    1.35343   1.35583   1.36287   1.36486   1.36780
 Alpha virt. eigenvalues --    1.37371   1.38060   1.38169   1.38641   1.38867
 Alpha virt. eigenvalues --    1.39768   1.39830   1.40480   1.40890   1.41128
 Alpha virt. eigenvalues --    1.42170   1.42772   1.42898   1.43056   1.43536
 Alpha virt. eigenvalues --    1.43972   1.44239   1.44508   1.44784   1.45290
 Alpha virt. eigenvalues --    1.45457   1.46494   1.46836   1.47213   1.48638
 Alpha virt. eigenvalues --    1.48958   1.49047   1.49257   1.50334   1.50706
 Alpha virt. eigenvalues --    1.52272   1.52576   1.53355   1.53778   1.54414
 Alpha virt. eigenvalues --    1.55191   1.57100   1.57270   1.58834   1.59486
 Alpha virt. eigenvalues --    1.60328   1.60449   1.61299   1.62576   1.62900
 Alpha virt. eigenvalues --    1.63297   1.64358   1.64429   1.64746   1.65501
 Alpha virt. eigenvalues --    1.65776   1.66062   1.66821   1.67236   1.67996
 Alpha virt. eigenvalues --    1.68645   1.68872   1.69638   1.69994   1.70780
 Alpha virt. eigenvalues --    1.70845   1.71017   1.72290   1.72912   1.73291
 Alpha virt. eigenvalues --    1.73417   1.74501   1.74838   1.75620   1.76542
 Alpha virt. eigenvalues --    1.76868   1.77437   1.78115   1.78411   1.78829
 Alpha virt. eigenvalues --    1.79457   1.79724   1.80710   1.81141   1.81199
 Alpha virt. eigenvalues --    1.81315   1.81710   1.82366   1.83235   1.83671
 Alpha virt. eigenvalues --    1.84371   1.84500   1.84859   1.85019   1.85360
 Alpha virt. eigenvalues --    1.85612   1.86008   1.86727   1.87038   1.87524
 Alpha virt. eigenvalues --    1.87643   1.87700   1.88224   1.89048   1.89556
 Alpha virt. eigenvalues --    1.90371   1.90555   1.91018   1.91540   1.91827
 Alpha virt. eigenvalues --    1.92156   1.92249   1.92351   1.92662   1.92737
 Alpha virt. eigenvalues --    1.93188   1.93395   1.93480   1.93822   1.94017
 Alpha virt. eigenvalues --    1.94179   1.94521   1.95084   1.95515   1.96682
 Alpha virt. eigenvalues --    1.96915   1.97872   1.98398   1.98560   1.98693
 Alpha virt. eigenvalues --    1.99019   1.99935   2.00845   2.01365   2.01877
 Alpha virt. eigenvalues --    2.02003   2.02224   2.02377   2.02564   2.02899
 Alpha virt. eigenvalues --    2.03459   2.03502   2.03768   2.03875   2.04303
 Alpha virt. eigenvalues --    2.04970   2.05359   2.06131   2.06285   2.06561
 Alpha virt. eigenvalues --    2.07030   2.07220   2.07541   2.07647   2.07739
 Alpha virt. eigenvalues --    2.08170   2.08481   2.08801   2.08961   2.09698
 Alpha virt. eigenvalues --    2.10047   2.10347   2.10510   2.10692   2.10962
 Alpha virt. eigenvalues --    2.11324   2.11689   2.12035   2.12635   2.13043
 Alpha virt. eigenvalues --    2.13887   2.14415   2.15120   2.15390   2.15586
 Alpha virt. eigenvalues --    2.15976   2.16487   2.16689   2.17425   2.17964
 Alpha virt. eigenvalues --    2.18176   2.18807   2.19047   2.19237   2.19330
 Alpha virt. eigenvalues --    2.19612   2.19794   2.20168   2.20532   2.20849
 Alpha virt. eigenvalues --    2.21685   2.22190   2.22334   2.22560   2.22884
 Alpha virt. eigenvalues --    2.23282   2.23786   2.24084   2.24252   2.24905
 Alpha virt. eigenvalues --    2.25109   2.25606   2.25928   2.26273   2.26434
 Alpha virt. eigenvalues --    2.26612   2.27174   2.27506   2.27940   2.28088
 Alpha virt. eigenvalues --    2.29259   2.30070   2.31412   2.31771   2.32276
 Alpha virt. eigenvalues --    2.32667   2.32988   2.33191   2.33811   2.34222
 Alpha virt. eigenvalues --    2.34248   2.34882   2.35688   2.35924   2.36596
 Alpha virt. eigenvalues --    2.39060   2.39416   2.39633   2.40264   2.43021
 Alpha virt. eigenvalues --    2.43263   2.44189   2.44924   2.45461   2.46399
 Alpha virt. eigenvalues --    2.46796   2.47458   2.48325   2.48772   2.49061
 Alpha virt. eigenvalues --    2.49097   2.49641   2.49952   2.50316   2.50689
 Alpha virt. eigenvalues --    2.51884   2.52647   2.53793   2.59259   2.59376
 Alpha virt. eigenvalues --    2.59767   2.60512   2.60797   2.61496   2.61914
 Alpha virt. eigenvalues --    2.63082   2.64774   2.65023   2.65290   2.65816
 Alpha virt. eigenvalues --    2.66575   2.67340   2.67683   2.67913   2.70399
 Alpha virt. eigenvalues --    2.73628   2.75867   2.76589   2.76852   2.77198
 Alpha virt. eigenvalues --    2.77525   2.78469   2.79019   2.79493   2.79816
 Alpha virt. eigenvalues --    2.80303   2.80571   2.81494   2.81711   2.82094
 Alpha virt. eigenvalues --    2.82449   2.83763   2.84671   2.86032   2.88425
 Alpha virt. eigenvalues --    2.89541   2.90978   2.91323   2.91770   2.92544
 Alpha virt. eigenvalues --    2.93109   2.94791   2.96068   2.96708   2.97716
 Alpha virt. eigenvalues --    2.98483   3.02764   3.04554   3.05137   3.05205
 Alpha virt. eigenvalues --    3.05505   3.05942   3.06781   3.07690   3.08751
 Alpha virt. eigenvalues --    3.10986   3.11380   3.11872   3.13213   3.14132
 Alpha virt. eigenvalues --    3.14894   3.18962   3.26087   3.32137   3.44999
 Alpha virt. eigenvalues --   11.41709
          Condensed to atoms (all electrons):
 Mulliken charges:
               1
     1  C    0.316615
     2  C    0.059545
     3  C   -0.082088
     4  C   -0.164792
     5  C   -0.172219
     6  C    0.303051
     7  C    0.014026
     8  C   -0.076474
     9  C   -0.158439
    10  C   -0.158003
    11  H    0.200033
    12  H    0.202275
    13  H    0.182220
    14  H    0.256584
    15  H    0.203606
    16  H    0.188448
    17  N   -0.485423
    18  N   -0.506719
    19  Ir  -0.026877
    20  O   -0.528134
    21  O   -0.545262
    22  O   -0.535288
    23  B    0.462339
    24  B    0.540060
    25  B    0.422147
    26  O   -0.522418
    27  O   -0.513345
    28  C    0.293479
    29  C    0.290995
    30  C    0.287996
    31  C    0.306527
    32  C    0.299215
    33  C    0.302566
    34  O   -0.517383
    35  C   -0.513946
    36  H    0.145249
    37  H    0.152196
    38  H    0.191012
    39  C   -0.508199
    40  H    0.164751
    41  H    0.149835
    42  H    0.168413
    43  C   -0.499014
    44  H    0.146240
    45  H    0.173718
    46  H    0.163974
    47  C   -0.506600
    48  H    0.166863
    49  H    0.175741
    50  H    0.149131
    51  C   -0.513219
    52  H    0.166748
    53  H    0.149846
    54  H    0.167401
    55  C   -0.511736
    56  H    0.163212
    57  H    0.189037
    58  H    0.143869
    59  C   -0.506770
    60  H    0.168056
    61  H    0.171160
    62  H    0.146896
    63  C   -0.510182
    64  H    0.176029
    65  H    0.163096
    66  H    0.146795
    67  C   -0.495352
    68  H    0.162465
    69  H    0.140711
    70  H    0.156452
    71  C   -0.513203
    72  H    0.181193
    73  H    0.163152
    74  H    0.150066
    75  C   -0.500855
    76  H    0.197006
    77  H    0.139954
    78  H    0.162648
    79  C   -0.513191
    80  H    0.152997
    81  H    0.156159
    82  H    0.171712
    83  H    0.225990
    84  C    0.586951
    85  O   -0.532907
    86  C   -0.400513
    87  H    0.180872
    88  H    0.158937
    89  C   -0.389310
    90  H    0.190033
    91  H    0.210428
    92  N   -0.383015
    93  C   -0.391379
    94  H    0.165971
    95  H    0.175565
    96  H    0.224639
    97  C   -0.475527
    98  H    0.151113
    99  H    0.182411
   100  C    0.967996
   101  F   -0.313818
   102  F   -0.307844
   103  F   -0.304394
   104  C    0.968895
   105  F   -0.313054
   106  F   -0.306173
   107  F   -0.313575
   108  H    0.161329
 Sum of Mulliken charges =  -0.00000
 Mulliken charges with hydrogens summed into heavy atoms:
               1
     1  C    0.316615
     2  C    0.259577
     3  C   -0.082088
     4  C    0.037482
     5  C    0.010002
     6  C    0.303051
     7  C    0.270610
     8  C   -0.076474
     9  C    0.045167
    10  C    0.030445
    17  N   -0.485423
    18  N   -0.506719
    19  Ir  -0.026877
    20  O   -0.528134
    21  O   -0.545262
    22  O   -0.535288
    23  B    0.462339
    24  B    0.540060
    25  B    0.422147
    26  O   -0.522418
    27  O   -0.513345
    28  C    0.293479
    29  C    0.290995
    30  C    0.287996
    31  C    0.306527
    32  C    0.299215
    33  C    0.302566
    34  O   -0.517383
    35  C   -0.025489
    39  C   -0.025200
    43  C   -0.015082
    47  C   -0.014864
    51  C   -0.029223
    55  C   -0.015619
    59  C   -0.020658
    63  C   -0.024262
    67  C   -0.035724
    71  C   -0.018792
    75  C   -0.001246
    79  C   -0.032324
    84  C    0.586951
    85  O   -0.532907
    86  C   -0.060705
    89  C    0.237140
    92  N   -0.383015
    93  C    0.174796
    97  C    0.019326
   100  C    0.967996
   101  F   -0.313818
   102  F   -0.307844
   103  F   -0.304394
   104  C    0.968895
   105  F   -0.313054
   106  F   -0.306173
   107  F   -0.313575
 APT charges:
               1
     1  C    0.222938
     2  C    0.089778
     3  C   -0.190511
     4  C    0.065818
     5  C   -0.170807
     6  C    0.222387
     7  C    0.035143
     8  C   -0.194896
     9  C    0.119938
    10  C   -0.200494
    11  H    0.093971
    12  H    0.071011
    13  H    0.051796
    14  H    0.158993
    15  H    0.058534
    16  H    0.057838
    17  N   -0.152433
    18  N   -0.181884
    19  Ir  -0.610783
    20  O   -0.957971
    21  O   -1.025110
    22  O   -1.035058
    23  B    1.258166
    24  B    1.275095
    25  B    1.227586
    26  O   -0.974331
    27  O   -0.991102
    28  C    0.498015
    29  C    0.498054
    30  C    0.505251
    31  C    0.473327
    32  C    0.512901
    33  C    0.498285
    34  O   -1.004487
    35  C   -0.050464
    36  H   -0.023451
    37  H   -0.010846
    38  H    0.048478
    39  C   -0.013838
    40  H   -0.003520
    41  H   -0.016260
    42  H   -0.000267
    43  C   -0.003191
    44  H   -0.020038
    45  H   -0.002785
    46  H   -0.002987
    47  C   -0.023927
    48  H   -0.000991
    49  H    0.001737
    50  H   -0.024703
    51  C   -0.010638
    52  H   -0.007337
    53  H   -0.019247
    54  H   -0.000280
    55  C   -0.049032
    56  H    0.000355
    57  H    0.032026
    58  H   -0.028709
    59  C   -0.024150
    60  H   -0.005308
    61  H   -0.000475
    62  H   -0.029119
    63  C   -0.009631
    64  H    0.008156
    65  H   -0.006478
    66  H   -0.022821
    67  C   -0.018153
    68  H   -0.000205
    69  H   -0.017596
    70  H   -0.022154
    71  C   -0.006277
    72  H    0.011820
    73  H    0.002924
    74  H   -0.019955
    75  C   -0.042389
    76  H    0.037882
    77  H   -0.033034
    78  H    0.004604
    79  C   -0.007245
    80  H   -0.017173
    81  H   -0.009996
    82  H   -0.000222
    83  H   -0.050866
    84  C    0.854936
    85  O   -0.733460
    86  C    0.007193
    87  H   -0.014063
    88  H   -0.012849
    89  C    0.258146
    90  H   -0.050569
    91  H    0.051849
    92  N   -0.669906
    93  C    0.238997
    94  H    0.009851
    95  H   -0.048282
    96  H    0.083377
    97  C    0.075315
    98  H   -0.008586
    99  H    0.003673
   100  C    1.756610
   101  F   -0.573639
   102  F   -0.566530
   103  F   -0.531564
   104  C    1.845128
   105  F   -0.620383
   106  F   -0.522205
   107  F   -0.608224
   108  H   -0.021996
 Sum of APT charges =  -0.00000
 APT charges with hydrogens summed into heavy atoms:
               1
     1  C    0.222938
     2  C    0.183749
     3  C   -0.190511
     4  C    0.136829
     5  C   -0.119011
     6  C    0.222387
     7  C    0.194136
     8  C   -0.194896
     9  C    0.178473
    10  C   -0.142656
    17  N   -0.152433
    18  N   -0.181884
    19  Ir  -0.610783
    20  O   -0.957971
    21  O   -1.025110
    22  O   -1.035058
    23  B    1.258166
    24  B    1.275095
    25  B    1.227586
    26  O   -0.974331
    27  O   -0.991102
    28  C    0.498015
    29  C    0.498054
    30  C    0.505251
    31  C    0.473327
    32  C    0.512901
    33  C    0.498285
    34  O   -1.004487
    35  C   -0.036283
    39  C   -0.033885
    43  C   -0.029000
    47  C   -0.047884
    51  C   -0.037502
    55  C   -0.045361
    59  C   -0.059051
    63  C   -0.030773
    67  C   -0.058109
    71  C   -0.011488
    75  C   -0.032937
    79  C   -0.034636
    84  C    0.854936
    85  O   -0.733460
    86  C   -0.019718
    89  C    0.208560
    92  N   -0.669906
    93  C    0.283943
    97  C    0.048406
   100  C    1.756610
   101  F   -0.573639
   102  F   -0.566530
   103  F   -0.531564
   104  C    1.845128
   105  F   -0.620383
   106  F   -0.522205
   107  F   -0.608224
 Electronic spatial extent (au):  <R**2>=          32973.7566
 Charge=             -0.0000 electrons
 Dipole moment (field-independent basis, Debye):
    X=             -3.4441    Y=              2.2968    Z=              0.5719  Tot=              4.1790
 Quadrupole moment (field-independent basis, Debye-Ang):
   XX=           -333.2116   YY=           -323.2759   ZZ=           -326.1709
   XY=            -12.0432   XZ=              1.6676   YZ=              8.9969
 Traceless Quadrupole moment (field-independent basis, Debye-Ang):
   XX=             -5.6588   YY=              4.2769   ZZ=              1.3819
   XY=            -12.0432   XZ=              1.6676   YZ=              8.9969
 Octapole moment (field-independent basis, Debye-Ang**2):
  XXX=             33.3685  YYY=             74.2436  ZZZ=            -13.0562  XYY=            -41.1995
  XXY=              6.9829  XXZ=            -29.1652  XZZ=            -13.4161  YZZ=              9.8656
  YYZ=             51.3126  XYZ=            -22.2599
 Hexadecapole moment (field-independent basis, Debye-Ang**3):
 XXXX=         -17480.4202 YYYY=         -15524.1345 ZZZZ=          -8243.8903 XXXY=            -97.5792
 XXXZ=            -74.9024 YYYX=            270.8094 YYYZ=            330.1164 ZZZX=            -14.2921
 ZZZY=           -114.2845 XXYY=          -5551.8405 XXZZ=          -4223.2838 YYZZ=          -3930.2496
 XXYZ=             47.9554 YYXZ=            -69.6625 ZZXY=             57.3161
 N-N= 9.601434566076D+03 E-N=-2.581020941333D+04  KE= 2.745818402346D+03
  Exact polarizability:     537.588      -3.700     526.602     -15.759      24.942     402.552
 Approx polarizability:     768.296      14.544     763.530     -40.346      49.732     589.008
   1 Symmetry operations used in ECPInt.
 ECPInt:  NShTT=   54615 NPrTT=  339395 LenC2=   40551 LenP2D=  125189.
 LDataN:  DoStor=T MaxTD1= 8 Len=  415
 Calling FoFJK, ICntrl=    100127 FMM=F ISym2X=0 I1Cent= 0 IOpClX= 0 NMat=1 NMatS=1 NMatT=0.
 Defaulting to unpruned grid for atomic number  77.
 Defaulting to unpruned grid for atomic number  77.
 Defaulting to unpruned grid for atomic number  77.
 Defaulting to unpruned grid for atomic number  77.
 Defaulting to unpruned grid for atomic number  77.
 Defaulting to unpruned grid for atomic number  77.
 Defaulting to unpruned grid for atomic number  77.
 Defaulting to unpruned grid for atomic number  77.
 Defaulting to unpruned grid for atomic number  77.
 Defaulting to unpruned grid for atomic number  77.
 Defaulting to unpruned grid for atomic number  77.
 Defaulting to unpruned grid for atomic number  77.
 Defaulting to unpruned grid for atomic number  77.
 Defaulting to unpruned grid for atomic number  77.
 Defaulting to unpruned grid for atomic number  77.
 Defaulting to unpruned grid for atomic number  77.
 Full mass-weighted force constant matrix:
 Low frequencies ---   -6.7482   -1.2926   -0.0007   -0.0004   -0.0004    6.1043
 Low frequencies ---   13.1739   21.8454   26.4141
 Diagonal vibrational polarizability:
       82.2832821      72.8282511     134.4971848
 Harmonic frequencies (cm**-1), IR intensities (KM/Mole), Raman scattering
 activities (A**4/AMU), depolarization ratios for plane and unpolarized
 incident light, reduced masses (AMU), force constants (mDyne/A),
 and normal coordinates:
                      1                      2                      3
                      A                      A                      A
 Frequencies --     13.0401                21.6757                26.3834
 Red. masses --      8.3798                 6.1291                 6.7191
 Frc consts  --      0.0008                 0.0017                 0.0028
 IR Inten    --      0.0317                 0.7818                 0.0658
  Atom AN      X      Y      Z        X      Y      Z        X      Y      Z
     1   6    -0.01  -0.00  -0.01     0.00  -0.03   0.08    -0.01   0.01  -0.01
     2   6    -0.01   0.01  -0.04    -0.02  -0.00  -0.04    -0.00  -0.00   0.02
     3   6    -0.01  -0.00  -0.01    -0.00  -0.03   0.03    -0.01   0.01  -0.02
     4   6     0.00  -0.01   0.02     0.02  -0.06   0.13    -0.03   0.03  -0.07
     5   6     0.00  -0.01   0.02     0.02  -0.07   0.16    -0.03   0.02  -0.06
     6   6    -0.00  -0.00   0.01     0.00  -0.03   0.09    -0.01   0.00   0.01
     7   6    -0.00  -0.00   0.01    -0.01   0.00  -0.00     0.00  -0.01   0.06
     8   6     0.01  -0.01   0.09    -0.01  -0.00   0.04     0.01  -0.02   0.07
     9   6     0.01  -0.02   0.12    -0.01  -0.02   0.12     0.01  -0.01   0.05
    10   6     0.01  -0.01   0.07     0.00  -0.03   0.15     0.00  -0.00   0.02
    11   1    -0.02   0.01  -0.06    -0.03   0.02  -0.11     0.00  -0.01   0.05
    12   1     0.01  -0.02   0.04     0.03  -0.09   0.19    -0.04   0.04  -0.10
    13   1     0.01  -0.02   0.04     0.04  -0.10   0.25    -0.04   0.04  -0.09
    14   1    -0.01   0.00  -0.02    -0.01   0.01  -0.05     0.00  -0.02   0.07
    15   1     0.02  -0.03   0.18    -0.01  -0.02   0.16     0.02  -0.01   0.06
    16   1     0.01  -0.01   0.10     0.00  -0.05   0.21     0.01   0.01   0.01
    17   7    -0.01   0.01  -0.04    -0.01  -0.00  -0.01    -0.00  -0.00   0.02
    18   7    -0.01   0.00  -0.03    -0.01  -0.01   0.02    -0.01  -0.00   0.03
    19  77    -0.02   0.01  -0.05    -0.01   0.01  -0.04    -0.01  -0.00   0.02
    20   8     0.03   0.08  -0.01    -0.02   0.04  -0.02     0.06   0.02   0.04
    21   8    -0.01   0.01  -0.08    -0.01   0.01  -0.03    -0.01  -0.01   0.00
    22   8    -0.03  -0.05  -0.01    -0.00  -0.02  -0.03    -0.02  -0.01   0.02
    23   5    -0.02   0.01  -0.06    -0.01   0.00  -0.02    -0.01   0.01  -0.01
    24   5     0.02   0.06  -0.02    -0.02   0.03  -0.02     0.03   0.00   0.02
    25   5    -0.01  -0.01  -0.01    -0.01   0.00  -0.03    -0.01  -0.01   0.02
    26   8    -0.00   0.00   0.02    -0.01   0.01  -0.02     0.00  -0.01   0.03
    27   8     0.02   0.06  -0.01    -0.01   0.04  -0.00     0.01  -0.01  -0.01
    28   6     0.04   0.10   0.01    -0.02   0.05   0.00     0.03  -0.02  -0.00
    29   6     0.04   0.10   0.01    -0.02   0.05  -0.01     0.05   0.02   0.03
    30   6    -0.03  -0.06   0.03     0.00  -0.02  -0.01    -0.02  -0.01   0.03
    31   6    -0.01  -0.03   0.05    -0.00  -0.01  -0.01    -0.00  -0.01   0.03
    32   6    -0.01   0.01  -0.07    -0.01   0.01  -0.00    -0.01  -0.01  -0.05
    33   6    -0.02  -0.01  -0.05    -0.01  -0.02   0.02    -0.02   0.05  -0.09
    34   8    -0.02  -0.01  -0.04    -0.01  -0.01   0.01    -0.02   0.03  -0.06
    35   6     0.04   0.09   0.04    -0.01   0.04  -0.01     0.02   0.05   0.05
    36   1     0.05   0.10   0.06    -0.01   0.04  -0.01     0.00   0.05   0.05
    37   1     0.04   0.09   0.04    -0.02   0.03  -0.01     0.04   0.08   0.06
    38   1     0.03   0.07   0.05    -0.01   0.03  -0.01    -0.00   0.05   0.04
    39   6     0.06   0.13   0.00    -0.03   0.06  -0.02     0.10   0.01   0.04
    40   1     0.06   0.13   0.01    -0.04   0.06  -0.03     0.11   0.03   0.07
    41   1     0.07   0.15   0.02    -0.04   0.07  -0.01     0.09   0.00   0.03
    42   1     0.06   0.14  -0.02    -0.04   0.07  -0.02     0.12  -0.01   0.03
    43   6     0.04   0.10   0.04    -0.01   0.05   0.02    -0.00  -0.02  -0.01
    44   1     0.06   0.12   0.06    -0.01   0.06   0.03     0.01  -0.01  -0.01
    45   1     0.03   0.08   0.06    -0.00   0.04   0.03    -0.03   0.00   0.00
    46   1     0.04   0.09   0.04    -0.01   0.06   0.03    -0.01  -0.04  -0.04
    47   6     0.05   0.12  -0.02    -0.03   0.07   0.00     0.07  -0.05  -0.03
    48   1     0.05   0.11  -0.03    -0.02   0.07   0.01     0.05  -0.06  -0.06
    49   1     0.05   0.12  -0.05    -0.03   0.07  -0.01     0.09  -0.04  -0.02
    50   1     0.07   0.14  -0.01    -0.03   0.08   0.01     0.09  -0.05  -0.03
    51   6    -0.02   0.00  -0.10    -0.01  -0.00  -0.02    -0.01   0.01  -0.02
    52   1    -0.00   0.01  -0.11    -0.01   0.02  -0.03    -0.00  -0.03   0.00
    53   1    -0.02  -0.00  -0.10    -0.01  -0.01  -0.00    -0.01   0.02  -0.06
    54   1    -0.03  -0.01  -0.10    -0.01  -0.02  -0.03    -0.01   0.05   0.01
    55   6    -0.00   0.04  -0.06    -0.02   0.04   0.01    -0.00  -0.07  -0.09
    56   1     0.01   0.05  -0.07    -0.02   0.06  -0.00     0.01  -0.11  -0.05
    57   1     0.00   0.04  -0.04    -0.02   0.04   0.02    -0.00  -0.08  -0.10
    58   1    -0.00   0.04  -0.05    -0.01   0.04   0.04    -0.01  -0.08  -0.13
    59   6    -0.04  -0.03  -0.06    -0.00  -0.06   0.00    -0.04   0.12  -0.06
    60   1    -0.04  -0.05  -0.04     0.00  -0.07   0.01    -0.05   0.16  -0.08
    61   1    -0.04  -0.04  -0.08    -0.00  -0.06  -0.02    -0.04   0.13  -0.00
    62   1    -0.04  -0.04  -0.07     0.00  -0.06   0.01    -0.05   0.14  -0.09
    63   6    -0.02  -0.01  -0.03    -0.01  -0.02   0.05    -0.01   0.05  -0.17
    64   1    -0.01   0.01  -0.01    -0.01   0.00   0.06     0.00  -0.00  -0.19
    65   1    -0.03  -0.02  -0.01    -0.00  -0.04   0.07    -0.02   0.09  -0.19
    66   1    -0.02  -0.01  -0.03    -0.01  -0.02   0.06    -0.01   0.06  -0.19
    67   6    -0.01  -0.04   0.06    -0.00  -0.01  -0.02    -0.01  -0.02   0.04
    68   1     0.00  -0.01   0.06    -0.01   0.00  -0.02     0.00  -0.02   0.05
    69   1    -0.02  -0.05   0.03    -0.01  -0.02  -0.04    -0.01  -0.02   0.04
    70   1    -0.01  -0.06   0.08    -0.00  -0.02  -0.02    -0.01  -0.02   0.05
    71   6     0.01  -0.02   0.09    -0.00  -0.00   0.01     0.01  -0.01   0.03
    72   1     0.02  -0.01   0.08    -0.00   0.01   0.02     0.01  -0.01   0.01
    73   1     0.02   0.00   0.10    -0.01   0.01   0.01     0.02  -0.01   0.04
    74   1     0.01  -0.04   0.11     0.01  -0.01   0.02    -0.01  -0.01   0.04
    75   6    -0.02  -0.06   0.04     0.00  -0.03   0.00    -0.01   0.00   0.01
    76   1    -0.01  -0.03   0.03     0.00  -0.01   0.01    -0.01  -0.00   0.01
    77   1    -0.02  -0.06   0.07     0.00  -0.03   0.02    -0.01   0.00   0.01
    78   1    -0.04  -0.07   0.02     0.00  -0.04  -0.00    -0.02   0.01   0.02
    79   6    -0.04  -0.09   0.05     0.01  -0.04  -0.01    -0.03  -0.01   0.03
    80   1    -0.04  -0.10   0.08     0.00  -0.04   0.00    -0.02  -0.01   0.04
    81   1    -0.04  -0.09   0.04     0.01  -0.04  -0.03    -0.03  -0.02   0.04
    82   1    -0.05  -0.12   0.03     0.01  -0.06  -0.02    -0.04  -0.01   0.03
    83   1    -0.02  -0.09  -0.07     0.05  -0.06  -0.05    -0.00  -0.03   0.02
    84   6     0.02  -0.06  -0.03     0.11  -0.02   0.04    -0.00  -0.02  -0.03
    85   8     0.03  -0.08  -0.02     0.14  -0.05   0.05    -0.01  -0.02  -0.01
    86   6     0.02  -0.04  -0.02     0.11   0.01   0.08    -0.00  -0.01  -0.08
    87   1     0.01  -0.03  -0.02     0.08   0.10   0.07     0.02  -0.08  -0.07
    88   1     0.01  -0.03  -0.02     0.10  -0.02   0.03    -0.02   0.04  -0.03
    89   6    -0.01  -0.08  -0.05     0.07  -0.05  -0.03     0.01  -0.03   0.02
    90   1    -0.01  -0.08  -0.06     0.06  -0.04  -0.03     0.03  -0.02   0.03
    91   1     0.01  -0.09  -0.05     0.09  -0.06  -0.02     0.01  -0.03   0.04
    92   7    -0.00  -0.06  -0.05     0.07  -0.02  -0.02     0.01  -0.02  -0.01
    93   6    -0.02  -0.05  -0.05     0.04   0.02  -0.04     0.02  -0.02  -0.03
    94   1    -0.02  -0.04  -0.04     0.04   0.02  -0.04    -0.01  -0.00  -0.06
    95   1    -0.03  -0.04  -0.04     0.03   0.05  -0.03     0.05  -0.02  -0.04
    96   1    -0.04  -0.06  -0.05     0.01  -0.00  -0.07     0.00  -0.03   0.00
    97   6     0.04  -0.03  -0.02     0.15  -0.01   0.18    -0.00   0.03  -0.19
    98   1     0.05  -0.04  -0.02     0.16  -0.10   0.20     0.00   0.11  -0.21
    99   1     0.05  -0.03  -0.02     0.17   0.03   0.25    -0.01  -0.02  -0.26
   100   6    -0.00  -0.00  -0.00    -0.01  -0.02  -0.01    -0.01   0.01  -0.02
   101   9    -0.01   0.01  -0.02    -0.02  -0.02  -0.03    -0.01   0.01  -0.03
   102   9     0.01  -0.03  -0.00     0.03  -0.01  -0.02    -0.01   0.00  -0.02
   103   9    -0.00   0.01   0.03    -0.03  -0.02  -0.01    -0.01   0.01  -0.01
   104   6     0.02  -0.03   0.17    -0.03   0.02  -0.03     0.01  -0.02   0.07
   105   9     0.02  -0.18   0.24    -0.03   0.17  -0.10    -0.07   0.20  -0.00
   106   9     0.01  -0.01   0.07    -0.01   0.01   0.07     0.05  -0.06   0.29
   107   9     0.06   0.08   0.29    -0.07  -0.09  -0.14     0.04  -0.18  -0.10
   108   1     0.04  -0.01  -0.01     0.15   0.02   0.19    -0.00   0.03  -0.19
                      4                      5                      6
                      A                      A                      A
 Frequencies --     29.9755                33.1975                34.9289
 Red. masses --      5.9665                 4.1648                 3.9737
 Frc consts  --      0.0032                 0.0027                 0.0029
 IR Inten    --      0.0332                 0.0640                 0.1019
  Atom AN      X      Y      Z        X      Y      Z        X      Y      Z
     1   6     0.02   0.01  -0.05    -0.01  -0.01  -0.01    -0.00  -0.01  -0.02
     2   6     0.02   0.01  -0.03     0.00  -0.02   0.02    -0.00  -0.01  -0.02
     3   6     0.02   0.00  -0.01    -0.01  -0.02  -0.02    -0.00  -0.01  -0.02
     4   6     0.02   0.01  -0.02    -0.03  -0.00  -0.06    -0.00  -0.01  -0.02
     5   6     0.02   0.01  -0.04    -0.03  -0.00  -0.05    -0.00  -0.01  -0.01
     6   6     0.02   0.01  -0.04    -0.01  -0.01   0.01    -0.00  -0.01  -0.02
     7   6     0.03  -0.01   0.01    -0.01   0.00   0.01    -0.00  -0.02  -0.02
     8   6     0.03  -0.01   0.03    -0.01   0.00   0.01     0.00  -0.02  -0.02
     9   6     0.03  -0.00  -0.01    -0.02  -0.00   0.01     0.00  -0.01  -0.02
    10   6     0.02   0.01  -0.05    -0.02  -0.01   0.01     0.00  -0.01  -0.02
    11   1     0.01   0.01  -0.03     0.02  -0.03   0.05     0.00  -0.01  -0.02
    12   1     0.03   0.01  -0.01    -0.04   0.00  -0.10    -0.00  -0.02  -0.01
    13   1     0.02   0.01  -0.05    -0.05   0.01  -0.08    -0.00  -0.01  -0.01
    14   1     0.03  -0.01   0.03    -0.01   0.00   0.00    -0.01  -0.02  -0.01
    15   1     0.03  -0.00  -0.01    -0.02  -0.00   0.02     0.01  -0.01  -0.02
    16   1     0.02   0.01  -0.08    -0.02  -0.01   0.02     0.00  -0.01  -0.02
    17   7     0.01   0.01  -0.04     0.00  -0.02   0.02    -0.00  -0.01  -0.02
    18   7     0.02   0.00  -0.02    -0.01  -0.00   0.01    -0.01  -0.01  -0.02
[...]
 0001872,-0.00000591,0.00000906,-0.00001079,0.00000888,-0.00003822,0.00
 001179,-0.00001485,0.00002876,0.00001343,-0.00000125,0.00004541,0.0000
 0210,-0.00004077,-0.00001835,-0.00000015,0.00001884,-0.00003351,0.0007
 2009,0.00033538,0.00003927,-0.00023878,-0.00000038,0.00006077,-0.00023
 683,-0.00012567,-0.00016051,-0.00014427,-0.00016887,0.00001531,-0.0263
 8554,-0.19358266,0.10963045,0.00499234,0.01785929,0.01145754,0.0264430
 7,-0.06216500,0.02749488,0.00961197,0.25934831,-0.00028908,-0.00012108
 ,-0.00006484,0.00006971,-0.00007227,-0.00004421,0.00011459,0.00017302,
 0.00001029,-0.00009793,-0.00009508,0.00002466,0.00025053,0.00009846,-0
 .00002272,-0.00042159,0.00009850,-0.00021017,0.00300370,-0.00130131,-0
 .00186288,0.00561680,0.02062533,-0.00520039,-0.00140052,0.00089710,0.0
 0067984,0.00045147,0.00025805,0.00031142,-0.00000171,0.00000087,-0.000
 00995,0.00001331,0.00000241,-0.00001517,-0.00004906,0.00001468,-0.0000
 1710,0.00000735,-0.00021358,-0.00014240,0.00041524,-0.00012691,-0.0009
 9698,0.00011391,0.00000427,-0.00008662,0.00016199,0.00004802,0.0000188
 5,0.00107745,0.00137806,0.00085776,0.00000844,-0.00009711,-0.00033448,
 0.00003383,0.00010462,-0.00006988,-0.00014543,0.00033502,0.00020346,0.
 00012629,0.00022186,0.00031432,0.00011761,-0.00035086,-0.00021688,0.00
 003054,-0.00012272,0.00019757,-0.00020820,-0.00041969,-0.00031341,0.00
 014765,0.00026808,0.00013769,-0.00002391,0.00012576,-0.00006724,-0.000
 04136,-0.00004383,0.00002070,-0.00001927,-0.00008659,0.00005736,-0.000
 01863,-0.00010517,-0.00003086,-0.00006735,-0.00006363,-0.00009659,0.00
 019020,-0.00013311,-0.00004200,0.00012906,-0.00000710,-0.00014681,-0.0
 0020129,0.00025363,0.00021693,0.00001067,0.00000733,0.00000113,0.00000
 115,0.00001431,-0.00000976,-0.00000090,-0.00000662,0.00000400,-0.00000
 258,-0.00000445,0.00000245,-0.00000976,-0.00000714,-0.00001094,0.00000
 184,-0.00000693,0.00000537,-0.00000164,0.00001359,-0.00000646,0.000007
 56,0.00000210,0.00001315,0.00000713,0.00000583,0.00000976,0.00000172,0
 .00000231,-0.00000852,0.00000894,0.00000648,0.00000662,-0.00000822,-0.
 00000226,0.00000006,0.00002275,-0.00003042,-0.00000182,-0.00000088,-0.
 00000745,0.00000216,-0.00001484,0.00001987,0.00000648,0.00000191,0.000
 00734,-0.00001015,-0.00007905,-0.00002126,-0.00012842,0.00003956,0.000
 04735,0.00006194,-0.00001230,0.00003856,0.00002821,0.00001556,-0.00000
 525,0.00000758,-0.00004273,-0.00001770,-0.00002325,0.00002363,0.000001
 03,0.00003636,0.00000487,-0.00000944,0.00000911,-0.00001765,0.00002420
 ,0.00000213,-0.00001116,0.00004479,0.00004671,0.00001367,0.00000574,0.
 00001021,0.00001656,-0.00000928,-0.00003419,-0.00002590,0.00000347,0.0
 0000588,-0.00000915,0.00000134,0.00004548,-0.00000035,-0.00002246,0.00
 000558,0.00001115,0.00001997,0.00000995,-0.00001513,0.00000561,-0.0000
 0703,0.00001102,0.00001123,0.00001411,-0.00000748,-0.00001116,0.000005
 64,-0.00000435,0.00000285,-0.00001533,0.00001486,0.00001284,0.00001076
 ,0.00000982,0.00000904,0.00001092,-0.00000086,-0.00000455,-0.00000545,
 -0.00000609,-0.00000456,-0.00000377,0.00000771,0.00001553,0.00000901,0
 .00000875,0.00002030,-0.00000338,0.00000338,-0.00001501,0.00000214,-0.
 00000099,0.00001740,0.00000476,-0.00000775,-0.00000637,0.00000486,0.00
 000074,0.00001947,0.00000032,0.00000914,0.00000720,0.00000845,0.000005
 75,-0.00000221,-0.00000698,-0.00000955,-0.00000228,0.00001307,0.000004
 51,-0.00007001,0.00000489,0.00002423,0.00004896,-0.00008482,-0.0000377
 7,-0.00016210,0.00028420,-0.00000839,0.00002886,-0.00003884,-0.0000001
 8,0.00000572,0.00001379,-0.00001549,-0.00002128,-0.00001064,0.00002574
 ,0.00011825,0.00000170,0.00004838,0.00002323,0.00009637,0.00006438,0.0
 0004805,-0.00014244,-0.00004010,-0.00011214,0.00010600,-0.00001416,0.0
 0002886,-0.00002959,-0.00002722,-0.00000180,-0.00000374,0.00000658,-0.
 00001227,0.00002021,-0.00000608,0.00001853,-0.00002606,-0.00001224,-0.
 00000039,-0.00003788,0.00000376,0.00002475,0.00001680,0.00000600,-0.00
 001548,0.00002081,-0.00039421,-0.00017529,-0.00008615,0.00012393,0.000
 00480,-0.00001804,0.00013552,0.00006862,0.00011885,0.00008042,0.000081
 95,0.00000390,0.02488700,0.10654236,-0.17478903,-0.01103739,0.02884060
 ,-0.08077508,-0.01132584,0.01707904,0.01141598,-0.01155820,-0.17412931
 ,0.25074618,0.00007070,-0.00004077,0.00002976,-0.00007036,-0.00002179,
 0.00004505,0.00005870,-0.00002551,-0.00004069,-0.00021420,0.00001828,0
 .00004397,0.00003979,0.00005506,-0.00008140,0.00000588,0.00000181,0.00
 004193,0.00000940,-0.00000489,0.00000718,-0.00002138,0.00001011,0.0000
 0766,0.00002770,0.00002269,-0.00000853,0.00000287,-0.00002665,-0.00002
 000,-0.00000033,-0.00000596,0.00000138,-0.00002843,0.00000489,-0.00007
 070,0.00000619,0.00001747,0.00008087,0.00000745,-0.00000946,0.00000013
 ,0.00000323,-0.00000013,0.00000477,0.00001174,0.00001437,0.00004218,0.
 00005927,0.00004660,-0.00002656,0.00000222,-0.00000405,-0.00001606,-0.
 00000196,0.00005222,0.00002028,0.00002518,0.00006216,-0.00009883,-0.00
 006826,0.00003292,0.00000002,-0.00000558,0.00010544,-0.00001428,0.0000
 8572,-0.00005801,-0.00001641,-0.00001117,-0.00013291,0.00012502,-0.000
 02167,-0.00009116,0.00003679,0.00004325,0.00007804,-0.00000999,-0.0000
 1341,0.00007187,-0.00007721,-0.00000265,-0.00001031,0.00004192,-0.0000
 0431,-0.00004192,0.00003358,-0.00001710,-0.00006907,-0.00001547,-0.000
 02020,-0.00001723,-0.00001456,0.00003152,-0.00002617,0.00000124,0.0000
 2763,-0.00000535,-0.00000389,-0.00005099,0.00004260,0.00001473,-0.0000
 0034,0.00000823,-0.00000374,0.00000102,0.00000681,-0.00000390,0.000000
 09,-0.00000444,0.00000300,-0.00000112,-0.00000535,0.00000299,-0.000000
 50,0.00000482,-0.00000438,0.00000232,-0.00000297,0.00000168,-0.0000005
 0,0.00000340,-0.00000505,-0.00000038,-0.00000106,0.00000192,-0.0000003
 0,0.00000201,-0.00000404,0.00000092,0.00000336,-0.00000457,-0.00000015
 ,-0.00000166,0.00000188,-0.00000148,0.00000026,0.00000186,0.00000056,-
 0.00000077,-0.00000516,-0.00000027,-0.00000081,0.00000222,0.00000085,0
 .00000161,0.00000359,-0.00000050,0.00000180,-0.00000627,-0.00000344,0.
 00000120,0.00000062,0.00000131,-0.00000236,-0.00000062,-0.00000401,0.0
 0000317,0.00000120,0.00000249,-0.00000014,-0.00000193,-0.00000312,0.00
 000351,-0.00000101,0.00000156,-0.00000194,0.00000001,0.00000242,-0.000
 00214,0.00000121,-0.00000447,0.00000422,-0.00000083,-0.00000276,-0.000
 00510,0.00000031,0.00000273,-0.00000186,-0.00000112,0.00000352,0.00000
 485,-0.00000067,-0.00000592,0.00000143,0.00000103,-0.00000124,0.000001
 45,0.00000041,0.00000136,0.00000010,-0.00000148,0.00000204,0.00000054,
 0.00000110,-0.00000436,0.00000091,0.00000018,0.00000708,-0.00001382,0.
 00000559,-0.00000241,0.00000290,-0.00000679,-0.00000890,-0.00000108,0.
 00000305,0.00000196,0.00000797,0.00000496,0.00000060,0.00000094,-0.000
 00171,-0.00000136,-0.00000034,0.00000011,0.00000084,0.00000095,-0.0000
 0489,0.00000109,0.00000310,0.00000354,0.00000082,0.00000776,0.00000016
 ,-0.00000057,-0.00000309,-0.00000061,-0.00000041,0.00000885,0.00000228
 ,0.00000111,-0.00000353,-0.00000209,0.00001227,0.00000229,0.00000336,-
 0.00000064,0.00001158,0.00000011,-0.00001142,-0.00000613,-0.00000026,0
 .00000087,-0.00000584,-0.00000319,-0.00009118,0.00005001,0.00000051,0.
 00068193,0.00010436,-0.00011866,-0.00043747,0.00143652,0.00050007,-0.0
 0845567,-0.00153377,-0.00068074,0.00024378,-0.00000711,0.00032723,0.00
 024824,0.00018006,-0.00024390,0.00026348,0.00013983,0.00003934,-0.0000
 9123,0.00003248,0.00002648,0.00006281,-0.00002568,-0.00000474,-0.00090
 235,0.00049903,0.00016662,-0.00022755,-0.00020796,-0.00009471,0.000026
 08,-0.00002333,-0.00001571,0.00003739,0.00003629,0.00005768,0.00002096
 ,0.00001614,0.00003377,-0.31593408,0.00336623,-0.00325128,-0.00771975,
 -0.00000538,0.00112003,-0.00864882,0.00111615,-0.00126910,-0.00042020,
 0.00008425,-0.00001106,0.00017218,-0.00007177,-0.00003878,0.00012581,-
 0.00000494,0.00004987,0.00007388,-0.00001963,0.00001405,0.00010950,0.0
 0004417,0.00002661,-0.00003536,-0.00002371,-0.00002861,-0.00003364,0.0
 0000089,-0.00000007,-0.00002686,-0.00001776,0.00000192,0.34100249,0.00
 001216,-0.00001333,-0.00003816,0.00003189,0.00000537,-0.00001087,-0.00
 001828,-0.00001237,-0.00001012,0.00001619,0.00001808,-0.00004130,-0.00
 004116,-0.00000733,-0.00002458,0.00000258,-0.00001040,-0.00001546,-0.0
 0000749,-0.00000079,0.00000032,-0.00000461,-0.00000266,-0.00000151,-0.
 00000858,0.00000890,0.00000137,0.00002269,-0.00001548,-0.00000765,0.00
 000415,-0.00000257,-0.00000262,-0.00001342,0.00002119,0.00004803,0.000
 00857,0.00000587,0.00003488,-0.00000010,-0.00000249,-0.00000197,0.0000
 0411,0.00000061,0.00000221,0.00000772,0.00000243,0.00001720,-0.0000083
 1,-0.00000360,0.00002620,-0.00001821,0.00000433,0.00001623,-0.00000758
 ,-0.00001149,-0.00006264,-0.00001959,-0.00001380,0.00003030,-0.0000003
 4,0.00000343,0.00000267,0.00000801,-0.00003260,0.00003122,0.00000087,-
 0.00000618,0.00000382,0.00002049,0.00004175,-0.00002557,0.00000087,0.0
 0000757,-0.00004617,-0.00001806,-0.00001443,0.00001428,-0.00000384,-0.
 00001333,0.00001849,0.00000122,-0.00000025,-0.00000944,0.00000182,0.00
 000748,-0.00000180,0.00000811,0.00002458,0.00000454,0.00001255,0.00000
 075,0.00000008,-0.00000105,0.00000042,-0.00000169,0.00000018,0.0000017
 5,-0.00000418,-0.00000279,0.00000321,0.00000583,0.00000312,-0.00000460
 ,0.00000002,-0.00000129,-0.00000055,-0.00000011,-0.00000269,0.00000226
 ,0.00000168,0.00000111,0.00000022,-0.00000108,0.00000090,-0.00000264,0
 .00000023,-0.00000146,0.00000068,0.00000100,-0.00000025,0.00000055,0.0
 0000104,0.00000003,-0.00000037,-0.00000023,-0.00000066,-0.00000014,0.0
 0000196,0.00000024,-0.00000100,0.00000079,0.00000037,-0.00000011,-0.00
 000069,-0.00000066,0.00000020,-0.00000025,-0.00000099,-0.00000020,0.00
 000151,-0.00000075,0.00000033,-0.00000024,0.00000021,0.,-0.00000065,0.
 00000048,-0.00000023,0.00000089,-0.00000002,0.00000023,-0.00000047,0.0
 0000035,0.00000016,0.00000072,0.,0.00000005,0.00000004,-0.00000050,-0.
 00000064,-0.00000001,0.00000003,0.00000015,0.00000040,0.00000031,0.000
 00024,0.00000046,-0.00000016,0.,-0.00000035,0.00000012,-0.00000007,0.,
 0.00000006,0.00000226,0.00000068,-0.00000027,0.00000157,0.00000054,-0.
 00000186,-0.00000193,-0.00000104,0.00000085,-0.00000101,0.00000056,-0.
 00000067,-0.00000024,0.00000109,0.00000004,-0.00000064,0.00000047,0.00
 000004,0.00000046,-0.00000003,0.00000011,0.00000010,-0.00000008,-0.000
 00675,0.00000471,0.00000020,0.00000095,-0.00000490,0.00000555,0.000006
 99,0.00000442,-0.00000582,0.,-0.00000287,-0.00000111,-0.00000273,0.000
 00056,0.00000136,-0.00000072,0.00000094,-0.00000055,-0.00000006,-0.000
 00152,0.00000205,0.00000048,-0.00000036,-0.00000059,-0.00000119,-0.000
 00337,0.00000014,0.00000038,0.00000028,0.00000002,0.00000058,-0.000002
 12,-0.00000057,-0.00000161,0.00000107,0.00000156,-0.00000435,-0.000001
 66,-0.00000137,0.00000114,-0.00000425,0.00000010,0.00000493,0.00000348
 ,-0.00000098,-0.00000185,0.00000237,0.00000283,0.00015119,-0.00003305,
 -0.00001142,-0.00096987,-0.00690908,-0.00284020,-0.00075755,0.00166880
 ,0.00037961,0.03136329,-0.00054502,0.00093505,-0.00066389,0.00123962,0
 .00005456,-0.00046369,0.00113789,0.00077878,-0.00012936,-0.00039933,-0
 .00016271,0.00013268,-0.00003637,-0.00001984,-0.00000909,0.00001264,0.
 00001167,0.00233351,0.00028280,-0.00000147,0.00020555,0.00037483,0.000
 13283,-0.00005919,0.00000788,0.00005529,-0.00001470,-0.00002081,-0.000
 04322,-0.00003252,-0.00002973,-0.00001249,0.00263817,-0.04742074,0.000
 72558,-0.00493130,-0.00129867,0.00093388,-0.02355605,0.00149156,-0.002
 58483,0.00023890,-0.00010576,0.00018949,-0.00007356,0.00003916,-0.0000
 2312,-0.00009911,0.00002662,-0.00012056,-0.00004055,0.00006064,-0.0000
 4839,0.00001552,-0.00000665,-0.00000162,-0.00000345,0.00000045,-0.0000
 0027,-0.00000823,0.00000544,0.00000259,-0.00000359,0.00000250,-0.00000
 049,-0.00524619,0.05046787,0.00013392,-0.00012179,-0.00009167,-0.00010
 485,0.00002933,0.00005930,0.00007659,-0.00008885,-0.00006944,-0.000206
 95,0.00002680,0.00009372,-0.00000064,0.00000707,-0.00008354,0.00002822
 ,0.00000199,-0.00001293,-0.00000948,-0.00000559,0.00000140,-0.00001433
 ,0.00000290,0.00000309,0.00000089,0.00001698,-0.00000075,0.00002287,-0
 .00003621,-0.00001008,0.00000191,0.00000079,-0.00000548,-0.00000295,-0
 .00001009,-0.00006644,0.00004374,0.00004626,0.00014333,0.00000026,-0.0
 0000327,-0.00000111,0.00000087,-0.00000100,-0.00000068,0.00003213,0.00
 001208,0.00002717,0.00008536,0.00011049,0.00003386,-0.00000955,0.00000
 886,0.00001271,0.00001037,-0.00001496,-0.00003745,-0.00000239,0.000000
 64,-0.00000094,0.00000138,0.00000438,0.00000108,0.00000537,-0.00001013
 ,0.00000805,-0.00000619,-0.00000368,0.00000139,0.00000474,0.00001294,0
 .00000479,-0.00000568,-0.00000684,-0.00001573,0.00000165,0.00000198,0.
 00000265,0.00000116,-0.00000197,0.00000077,-0.00000192,0.00000056,-0.0
 0000063,-0.00000280,-0.00000431,0.00000435,0.00000349,0.00000902,0.000
 00654,-0.00000324,-0.00000083,-0.00000163,0.00000036,-0.00000055,0.000
 00013,-0.00000142,0.00000062,-0.00000105,0.00000124,0.00000133,0.00000
 135,-0.00000094,0.00000180,0.00000025,-0.00000015,0.00000043,-0.000000
 08,0.00000056,-0.00000153,0.00000037,0.00000011,-0.00000054,0.00000006
 ,-0.00000136,0.00000042,-0.00000048,0.00000080,-0.00000045,0.00000026,
 -0.00000007,0.00000008,-0.00000012,0.00000011,0.00000014,0.00000033,-0
 .00000009,-0.00000006,0.00000052,-0.00000015,0.00000003,-0.00000015,-0
 .00000020,0.00000027,0.00000021,0.00000053,-0.00000004,-0.00000002,0.0
 0000040,-0.00000050,-0.00000010,0.00000050,-0.00000024,-0.00000013,-0.
 00000031,0.00000006,0.00000022,-0.00000014,0.00000033,-0.00000013,-0.0
 0000016,0.00000032,-0.00000038,0.00000027,0.,0.00000045,0.00000003,0.,
 0.00000009,-0.00000018,-0.00000013,-0.00000027,-0.00000029,-0.00000003
 ,-0.00000018,0.00000005,-0.00000015,0.00000026,-0.00000008,0.00000031,
 0.00000012,0.00000015,0.,-0.00000006,0.00000006,0.00000117,0.00000003,
 -0.00000024,0.00000053,0.00000032,-0.00000080,-0.00000074,-0.00000041,
 0.00000065,-0.00000043,0.00000021,-0.00000010,-0.00000016,0.00000069,0
 .,-0.00000013,0.,-0.00000018,0.00000020,0.00000002,0.00000027,0.000000
 05,0.,0.00000187,0.00000260,0.00000150,-0.00000105,0.00000062,-0.00000
 147,0.00000042,-0.00000025,0.00000066,-0.00000009,-0.00000162,0.000000
 18,0.00000092,0.00000024,0.00000158,0.00000029,-0.00000045,0.00000007,
 0.00000003,0.00000011,-0.00000024,-0.00000021,-0.00000004,-0.00000038,
 -0.00000016,-0.00000059,-0.00000149,-0.00000044,0.00000006,0.,0.000000
 14,-0.00000105,0.00000013,0.00000021,0.00000057,0.00000004,-0.00000189
 ,-0.00000025,-0.00000195,0.00000030,-0.00000169,0.00000061,0.00000160,
 0.00000097,0.00000151,0.00000089,0.00000090,0.00000029,0.00005595,-0.0
 0001516,-0.00000184,-0.00058160,-0.00289808,-0.00055135,-0.00039487,0.
 00053292,0.00083866,0.01200150,0.00010159,-0.00082046,0.00007633,0.000
 60121,0.00008413,-0.00052185,0.00021357,0.00022046,-0.00005598,-0.0001
 3939,-0.00008095,0.00005332,-0.00000998,0.00000257,-0.00000333,0.00001
 295,0.00000319,0.00093163,0.00001840,0.00009770,0.00006665,0.00016588,
 0.00006556,-0.00002318,0.00001825,0.00003335,0.00000292,-0.00001324,-0
 .00003687,-0.00001144,-0.00001003,-0.00001687,-0.00371787,0.00089499,-
 0.04856869,-0.03020256,0.00082941,0.00176377,0.01892735,-0.00200350,0.
 00030345,-0.00025154,0.00014584,-0.00002882,0.00011283,-0.00006958,-0.
 00002328,0.00005829,-0.00002668,0.00003324,0.00004386,-0.00004623,0.00
 001675,0.00002128,0.00000944,-0.00000578,-0.00000577,-0.00000304,-0.00
 000134,-0.00000837,0.00000188,0.00000233,-0.00000485,-0.00000515,0.000
 00447,0.00334526,0.00170765,0.04665756\\0.00000451,-0.00000074,0.00000
 646,0.00001358,0.00000938,-0.00000089,-0.00000206,-0.00000180,0.000003
 52,-0.00000256,0.00000012,-0.00000455,-0.00000354,-0.00000445,-0.00000
 109,-0.00000275,0.00001037,0.00000175,-0.00000497,-0.00000694,-0.00000
 121,0.00000169,0.00000127,0.00000213,-0.00000572,0.00000472,0.00000491
 ,0.00000629,-0.00001085,-0.00000041,-0.00000179,-0.00000034,0.00000023
 ,-0.00000047,-0.00000127,0.00000093,0.00000066,0.00000259,0.00000314,0
 .00000016,0.00000118,0.00000333,-0.00000180,-0.00000190,0.00000214,-0.
 00000652,0.00000279,0.00000105,-0.00001772,-0.00001399,-0.00000747,0.0
 0000730,0.00000193,0.00000968,0.00000076,-0.00000044,-0.00001587,0.000
 00339,0.00000166,-0.00000534,-0.00000138,-0.00000467,0.00000133,0.0000
 1778,0.00000720,0.00000274,0.00000480,0.00000652,0.00000843,-0.0000094
 2,0.00000490,0.00000885,-0.00000971,0.00000083,0.00000723,0.00000267,0
 .00000199,-0.00000455,0.00000255,-0.00000012,-0.00000167,-0.00000141,-
 0.00000375,-0.00000452,-0.00000600,-0.00000773,0.00000138,-0.00000518,
 0.00000726,0.00000124,0.00000150,-0.00000067,-0.00000760,-0.00000020,0
 .00000350,-0.00000073,-0.00000125,0.00000304,-0.00000320,-0.00000003,-
 0.00000104,-0.00000168,0.00000317,0.00000492,-0.00000387,-0.00000153,-
 0.00000441,-0.00000033,-0.00000168,-0.00000172,-0.00000071,0.00000003,
 -0.00000183,-0.00000111,-0.00000385,-0.00000799,-0.00000162,-0.0000024
 1,-0.00000158,-0.00000127,-0.00000163,0.00000129,-0.00000275,0.0000007
 2,0.00000077,0.00000194,0.00000047,-0.00000313,0.00000060,-0.00000030,
 -0.00000151,-0.00000117,0.00000042,-0.00000007,-0.00000191,-0.00000256
 ,0.00000031,-0.00000004,0.00000281,0.00000455,0.00000273,-0.00000250,-
 0.00000050,0.00000026,-0.00000180,-0.00000447,0.00000007,-0.00000283,-
 0.00000221,-0.00000097,0.00000389,0.00000250,-0.00000493,-0.00000049,0
 .00000290,0.00000525,-0.00000225,0.00000349,0.00000332,0.00000095,-0.0
 0000116,0.00000668,-0.00000379,-0.00000009,0.00000617,-0.00000111,-0.0
 0000037,0.00000089,0.00000145,0.00000242,0.00000105,0.00000148,0.00000
 029,0.00000108,0.00000230,-0.00000283,0.00000443,0.00000035,0.00000049
 ,-0.00000007,0.00000031,0.00000558,0.00000162,0.00000113,0.00000230,0.
 00000165,0.00000788,0.00000159,0.00000447,0.00000070,0.00000022,0.0000
 0080,-0.00000124,-0.00000061,-0.00000407,-0.00000071,0.00000171,0.0000
 0114,0.00000324,-0.00000115,0.00000276,-0.00000015,0.00000041,-0.00000
 319,0.00000033,0.00000256,-0.00000150,0.00000011,-0.00000156,-0.000003
 24,0.00000236,0.00000041,-0.00000544,0.00000089,0.00000068,-0.00000277
 ,-0.00000046,-0.00000166,-0.00000020,0.00000271,0.00000009,-0.00000152
 ,0.00000110,-0.00000596,-0.00000802,0.00000286,0.00000113,0.00000294,0
 .00000362,0.00000412,0.00000013,0.00000282,0.00000221,-0.00000021,0.00
 000424,0.00000227,-0.00000459,0.00000264,-0.00000040,-0.00000226,0.000
 00087,0.00000137,-0.00000143,0.00000183,-0.00000045,-0.00000081,0.0000
 0400,-0.00001026,0.00000276,-0.00000961,0.00002653,-0.00000257,-0.0000
 0567,-0.00000909,-0.00000825,0.00000824,-0.00000583,0.00001761,-0.0000
 0010,0.00000077,-0.00000728,-0.00000192,0.00000882,-0.00000381,-0.0000
 1315,0.00001266,0.00000299,0.00000242,0.00000051,0.00000143,0.00000217
 ,0.00000085,-0.00000019,0.00001520,-0.00002354,0.00000134,0.00001604,0
 .00001218,0.00001039,0.00000099,0.00000164,-0.00000441,0.00000088,0.00
 000123,-0.00000314,-0.00001751,-0.00001571,-0.00001052,-0.00000473,-0.
 00000319,-0.00000693,-0.00000295,-0.00000024,0.00000351,-0.00000125,-0
 .00000404,0.00000469,0.00000409,0.00000653,-0.00001290,-0.00000331,-0.
 00000486,-0.00000170,-0.00000077,-0.00000228,0.00000335,-0.00000326,-0
 .00000951,-0.00000002,-0.00000358,-0.00000360,0.00000226,-0.00000144,0
 .00000062,0.00000305,-0.00000062,0.00000172,0.00000489,-0.00000076,0.0
 0000260,0.00000367,0.00000709,0.00000002,0.00000010\\\@
 The archive entry for this job was punched.


 FROM AN ANONYMOUS WRITER, ON PERSPECTIVE:

 MAN, DESPITE HIS ARTISTIC PRETENSIONS, HIS SOPHISTICATION AND MANY 
 ACCOMPLISHMENTS, OWES THE FACT OF HIS EXISTENCE TO A SIX-INCH LAYER OF 
 TOPSOIL AND THE FACT THAT IT RAINS.
 Job cpu time:       1 days 15 hours 26 minutes 22.5 seconds.
 Elapsed time:       0 days  2 hours 31 minutes 29.6 seconds.
 File lengths (MBytes):  RWF=   9700 Int=      0 D2E=      0 Chk=     55 Scr=      1
 Normal termination of Gaussian 16 at Sat Dec  7 21:24:51 2024.
