/mnt/lustre/scratch/nvme/SLURM/9663619/usccqdma.vGqRlbyQBS
OMP_STACKSIZE=0m
GAUSS_PDEF=16
GAUSS_MDEF=65536MB
GAUSS_RDEF=SCF=Direct
 Entering Gaussian System, Link 0=g16.exe
 Initial command:
 /opt/cesga/2020/software/Core/g16/c1/l1.exe "/mnt/lustre/scratch/nvme/SLURM/9663619/usccqdma.vGqRlbyQBS/Gau-4108607.inp" -scrdir="/mnt/lustre/scratch/nvme/SLURM/9663619/usccqdma.vGqRlbyQBS/"
 Default is to use a total of  16 processors:
                               16 via shared-memory
                                1 via Linda
 Entering Link 1 = /opt/cesga/2020/software/Core/g16/c1/l1.exe PID=   4108633.
  
 Copyright (c) 1988-2019, Gaussian, Inc.  All Rights Reserved.
  
 This is part of the Gaussian(R) 16 program.  It is based on
 the Gaussian(R) 09 system (copyright 2009, Gaussian, Inc.),
 the Gaussian(R) 03 system (copyright 2003, Gaussian, Inc.),
 the Gaussian(R) 98 system (copyright 1998, Gaussian, Inc.),
 the Gaussian(R) 94 system (copyright 1995, Gaussian, Inc.),
 the Gaussian 92(TM) system (copyright 1992, Gaussian, Inc.),
 the Gaussian 90(TM) system (copyright 1990, Gaussian, Inc.),
 the Gaussian 88(TM) system (copyright 1988, Gaussian, Inc.),
 the Gaussian 86(TM) system (copyright 1986, Carnegie Mellon
 University), and the Gaussian 82(TM) system (copyright 1983,
 Carnegie Mellon University). Gaussian is a federally registered
 trademark of Gaussian, Inc.
  
 This software contains proprietary and confidential information,
 including trade secrets, belonging to Gaussian, Inc.
  
 This software is provided under written license and may be
 used, copied, transmitted, or stored only in accord with that
 written license.
  
 The following legend is applicable only to US Government
 contracts under FAR:
  
                    RESTRICTED RIGHTS LEGEND
  
 Use, reproduction and disclosure by the US Government is
 subject to restrictions as set forth in subparagraphs (a)
 and (c) of the Commercial Computer Software - Restricted
 Rights clause in FAR 52.227-19.
  
 Gaussian, Inc.
 340 Quinnipiac St., Bldg. 40, Wallingford CT 06492
  
  
 ---------------------------------------------------------------
 Warning -- This program may not be used in any manner that
 competes with the business of Gaussian, Inc. or will provide
 assistance to any competitor of Gaussian, Inc.  The licensee
 of this program is prohibited from giving any competitor of
 Gaussian, Inc. access to this program.  By using this program,
 the user acknowledges that Gaussian, Inc. is engaged in the
 business of creating and licensing software in the field of
 computational chemistry and represents and warrants to the
 licensee that it is not a competitor of Gaussian, Inc. and that
 it will not use this program in any manner prohibited above.
 ---------------------------------------------------------------
  

 Cite this work as:
 Gaussian 16, Revision C.01,
 M. J. Frisch, G. W. Trucks, H. B. Schlegel, G. E. Scuseria, 
 M. A. Robb, J. R. Cheeseman, G. Scalmani, V. Barone, 
 G. A. Petersson, H. Nakatsuji, X. Li, M. Caricato, A. V. Marenich, 
 J. Bloino, B. G. Janesko, R. Gomperts, B. Mennucci, H. P. Hratchian, 
 J. V. Ortiz, A. F. Izmaylov, J. L. Sonnenberg, D. Williams-Young, 
 F. Ding, F. Lipparini, F. Egidi, J. Goings, B. Peng, A. Petrone, 
 T. Henderson, D. Ranasinghe, V. G. Zakrzewski, J. Gao, N. Rega, 
 G. Zheng, W. Liang, M. Hada, M. Ehara, K. Toyota, R. Fukuda, 
 J. Hasegawa, M. Ishida, T. Nakajima, Y. Honda, O. Kitao, H. Nakai, 
 T. Vreven, K. Throssell, J. A. Montgomery, Jr., J. E. Peralta, 
 F. Ogliaro, M. J. Bearpark, J. J. Heyd, E. N. Brothers, K. N. Kudin, 
 V. N. Staroverov, T. A. Keith, R. Kobayashi, J. Normand, 
 K. Raghavachari, A. P. Rendell, J. C. Burant, S. S. Iyengar, 
 J. Tomasi, M. Cossi, J. M. Millam, M. Klene, C. Adamo, R. Cammi, 
 J. W. Ochterski, R. L. Martin, K. Morokuma, O. Farkas, 
 J. B. Foresman, and D. J. Fox, Gaussian, Inc., Wallingford CT, 2019.
 
 ******************************************
 Gaussian 16:  ES64L-G16RevC.01  3-Jul-2019
                 7-Dec-2024 
 ******************************************
 Default route: SCF=Direct
 ----------------------------------------------------
 # m06/genecp scf=tight int=ultrafine 5d freq=noraman
 ----------------------------------------------------
 1/10=4,30=1,38=1/1,3;
 2/12=2,17=6,18=5,40=1/2;
 3/5=7,8=1,11=2,16=1,17=8,25=1,30=1,71=2,74=-54,75=-5,140=1/1,2,3;
 4//1;
 5/5=2,32=2,38=5,98=1/2;
 8/6=4,10=90,11=11/1;
 11/6=1,8=1,9=11,15=111,16=1/1,2,10;
 10/6=1/2;
 6/7=2,8=2,9=2,10=2,28=1/1;
 7/8=1,10=1,25=1/1,2,3,16;
 1/10=4,30=1/3;
 99//99;
 ------
 OPT-TS
 ------
 Symbolic Z-matrix:
 Charge =  0 Multiplicity = 1
 C                    -1.30825   3.11317  -0.07195 
 C                    -2.85858   1.40011   0.08974 
 C                    -3.90916   2.26606  -0.17398 
 C                    -3.64134   3.61148  -0.38921 
 C                    -2.32289   4.03797  -0.3165 
 C                     0.1185    3.48481   0.02353 
 C                     2.2779    2.71607   0.39087 
 C                     2.80158   3.99416   0.26449 
 C                     1.93296   5.05194   0.00599 
 C                     0.57914   4.79677  -0.11481 
 H                    -3.02418   0.33581   0.23974 
 H                    -4.44493   4.31052  -0.60701 
 H                    -2.09046   5.08877  -0.46736 
 H                     2.90758   1.84747   0.58339 
 H                     2.32247   6.06325  -0.1003 
 H                    -0.10811   5.61311  -0.31976 
 N                    -1.58644   1.79958   0.10716 
 N                     0.97136   2.47342   0.27507 
 Ir                    0.06673   0.40729   0.08885 
 O                     0.76171  -0.81974   2.78157 
 O                     3.96661  -1.33306  -0.81815 
 O                    -2.10953  -1.26086  -1.07641 
 B                     2.8618   -1.45959  -1.61206 
 B                    -0.21831  -0.3744    1.89967 
 B                    -0.91904  -1.29436  -0.32237 
 O                    -0.65307  -2.61578   0.0369 
 O                    -1.48701  -0.5688    2.46879 
 C                    -1.30801  -0.9766    3.83118 
 C                     0.12299  -1.58716   3.80803 
 C                    -2.76099  -2.5303   -0.93949 
 C                    -1.55313  -3.47175  -0.67797 
 C                     4.00361  -2.48987   0.04775 
 C                     3.12235  -3.52739  -0.72671 
 O                     2.27374  -2.69224  -1.54403 
 C                     0.90879  -1.43632   5.0954 
 H                     0.4122   -1.96085   5.92478 
 H                     1.90741  -1.87447   4.96536 
 H                     1.03889  -0.38434   5.37236 
 C                     0.14213  -3.04426   3.35919 
 H                     1.18576  -3.34292   3.18792 
 H                    -0.28599  -3.71536   4.11676 
 H                    -0.39822  -3.17053   2.41064 
 C                    -1.40531   0.27498   4.69477 
 H                    -0.60637   0.98608   4.44735 
 H                    -2.36763   0.76473   4.4985 
 H                    -1.34902   0.04262   5.76701 
 C                    -2.41115  -1.94594   4.2073 
 H                    -3.38262  -1.43546   4.16815 
 H                    -2.45115  -2.79963   3.52038 
 H                    -2.2684   -2.32755   5.22883 
 C                     5.45124  -2.90251   0.22963 
 H                     5.98734  -2.11713   0.77708 
 H                     5.51933  -3.82942   0.8167 
 H                     5.96176  -3.05487  -0.72773 
 C                     3.41474  -2.07555   1.3866 
 H                     3.94516  -1.1821    1.74246 
 H                     2.35211  -1.81635   1.32215 
 H                     3.53911  -2.86672   2.14012 
 C                     3.91467  -4.39423  -1.69503 
 H                     3.20837  -4.94504  -2.33029 
 H                     4.55424  -3.7863   -2.34891 
 H                     4.54534  -5.12369  -1.17004 
 C                     2.25612  -4.39479   0.16635 
 H                     1.75716  -5.16924  -0.43327 
 H                     2.86909  -4.90627   0.92259 
 H                     1.47958  -3.79935   0.66241 
 C                    -1.85941  -4.68858   0.17167 
 H                    -0.94272  -5.27469   0.32343 
 H                    -2.24464  -4.40592   1.15867 
 H                    -2.60031  -5.33603  -0.31975 
 C                    -0.85455  -3.89556  -1.96502 
 H                    -0.65332  -3.02471  -2.6051 
 H                     0.11879  -4.33757  -1.7185 
 H                    -1.44712  -4.62723  -2.53168 
 C                    -3.55611  -2.80947  -2.19934 
 H                    -4.06421  -3.7829   -2.14063 
 H                    -4.32212  -2.03099  -2.32104 
 H                    -2.92558  -2.80285  -3.09622 
 C                    -3.70619  -2.42118   0.25281 
 H                    -3.1535   -2.17141   1.17032 
 H                    -4.42594  -1.61176   0.06153 
 H                    -4.277    -3.34545   0.416 
 H                     1.38484  -0.51821   0.0342 
 C                     0.15122   0.27994  -3.08484 
 O                     0.2334    1.1916   -2.24393 
 C                    -1.12889   0.07093  -3.87149 
 H                    -0.90304   0.14753  -4.94669 
 H                    -1.47552  -0.95952  -3.69745 
 C                     2.46833  -0.33295  -2.64855 
 H                     3.2595   -0.25444  -3.41543 
 H                     2.42539   0.63875  -2.14583 
 N                     1.19579  -0.54068  -3.33832 
 C                     1.20299  -1.60233  -4.32382 
 H                     1.60811  -2.51414  -3.86645 
 H                     0.19762  -1.82205  -4.68846 
 H                     1.83429  -1.32782  -5.1837 
 C                    -2.23329   1.03349  -3.47903 
 H                    -2.58883   0.80133  -2.46882 
 H                    -1.88779   2.07405  -3.49672 
 C                    -5.27787   1.67023  -0.27309 
 F                    -5.63519   1.07336   0.8678 
 F                    -6.2042    2.58641  -0.56594 
 F                    -5.31496   0.73003  -1.2281 
 C                     4.26523   4.27212   0.40173 
 F                     4.73758   4.88191  -0.69258 
 F                     4.49763   5.09523   1.43187 
 F                     4.97487   3.16265   0.59413 
 H                    -3.08255   0.93534  -4.16644 
 

 GradGradGradGradGradGradGradGradGradGradGradGradGradGradGradGradGradGrad
 Berny optimization.
 Initialization pass.
 Trust Radius=3.00D-01 FncErr=1.00D-07 GrdErr=1.00D-07 EigMax=2.50D+02 EigMin=1.00D-04
 Number of steps in this run=      2 maximum allowed number of steps=      2.
 GradGradGradGradGradGradGradGradGradGradGradGradGradGradGradGradGradGrad

 Stoichiometry    C35H53B3F6IrN3O7
 Framework group  C1[X(C35H53B3F6IrN3O7)]
 Deg. of freedom   318
 Full point group                 C1      NOp   1
 Largest Abelian subgroup         C1      NOp   1
 Largest concise Abelian subgroup C1      NOp   1
                         Standard orientation:                         
 ---------------------------------------------------------------------
 Center     Atomic      Atomic             Coordinates (Angstroms)
 Number     Number       Type             X           Y           Z
 ---------------------------------------------------------------------
      1          6           0       -1.308257    3.113167   -0.071950
      2          6           0       -2.858584    1.400103    0.089740
      3          6           0       -3.909165    2.266051   -0.173980
      4          6           0       -3.641348    3.611472   -0.389210
      5          6           0       -2.322899    4.037965   -0.316500
      6          6           0        0.118492    3.484810    0.023530
      7          6           0        2.277894    2.716075    0.390870
      8          6           0        2.801571    3.994166    0.264490
      9          6           0        1.932948    5.051944    0.005990
     10          6           0        0.579129    4.796771   -0.114810
     11          1           0       -3.024181    0.335803    0.239740
     12          1           0       -4.444940    4.310510   -0.607010
     13          1           0       -2.090472    5.088765   -0.467360
     14          1           0        2.907575    1.847476    0.583390
     15          1           0        2.322456    6.063255   -0.100300
     16          1           0       -0.108123    5.613110   -0.319760
     17          7           0       -1.586444    1.799576    0.107160
     18          7           0        0.971354    2.473422    0.275070
     19         77           0        0.066729    0.407290    0.088850
     20          8           0        0.761711   -0.819739    2.781570
     21          8           0        3.966613   -1.333051   -0.818150
     22          8           0       -2.109528   -1.260865   -1.076410
     23          5           0        2.861803   -1.459584   -1.612060
     24          5           0       -0.218310   -0.374401    1.899670
     25          5           0       -0.919038   -1.294362   -0.322370
     26          8           0       -0.653065   -2.615782    0.036900
     27          8           0       -1.487009   -0.568804    2.468790
     28          6           0       -1.308008   -0.976603    3.831180
     29          6           0        0.122993   -1.587160    3.808030
     30          6           0       -2.760985   -2.530306   -0.939490
     31          6           0       -1.553123   -3.471754   -0.677970
     32          6           0        4.003615   -2.489861    0.047750
     33          6           0        3.122357   -3.527383   -0.726710
     34          8           0        2.273746   -2.692235   -1.544030
     35          6           0        0.908793   -1.436318    5.095400
     36          1           0        0.412204   -1.960849    5.924780
     37          1           0        1.907414   -1.874466    4.965360
     38          1           0        1.038890   -0.384338    5.372360
     39          6           0        0.142136   -3.044260    3.359190
     40          1           0        1.185767   -3.342918    3.187920
     41          1           0       -0.285982   -3.715361    4.116760
     42          1           0       -0.398213   -3.170531    2.410640
     43          6           0       -1.405311    0.274977    4.694770
     44          1           0       -0.606373    0.986078    4.447350
     45          1           0       -2.367632    0.764724    4.498500
     46          1           0       -1.349020    0.042617    5.767010
     47          6           0       -2.411146   -1.945946    4.207300
     48          1           0       -3.382617   -1.435468    4.168150
     49          1           0       -2.451144   -2.799636    3.520380
     50          1           0       -2.268395   -2.327555    5.228830
     51          6           0        5.451246   -2.902498    0.229630
     52          1           0        5.987344   -2.117117    0.777080
     53          1           0        5.519338   -3.829408    0.816700
     54          1           0        5.961766   -3.054857   -0.727730
     55          6           0        3.414744   -2.075543    1.386600
     56          1           0        3.945162   -1.182091    1.742460
     57          1           0        2.352114   -1.816345    1.322150
     58          1           0        3.539116   -2.866712    2.140120
     59          6           0        3.914679   -4.394221   -1.695030
     60          1           0        3.208381   -4.945033   -2.330290
     61          1           0        4.554248   -3.786290   -2.348910
     62          1           0        4.545351   -5.123680   -1.170040
     63          6           0        2.256129   -4.394785    0.166350
     64          1           0        1.757171   -5.169236   -0.433270
     65          1           0        2.869101   -4.906264    0.922590
     66          1           0        1.479588   -3.799347    0.662410
     67          6           0       -1.859400   -4.688584    0.171670
     68          1           0       -0.942709   -5.274692    0.323430
     69          1           0       -2.244631   -4.405925    1.158670
     70          1           0       -2.600298   -5.336036   -0.319750
     71          6           0       -0.854542   -3.895562   -1.965020
     72          1           0       -0.653314   -3.024712   -2.605100
     73          1           0        0.118799   -4.337570   -1.718500
     74          1           0       -1.447110   -4.627233   -2.531680
     75          6           0       -3.556104   -2.809478   -2.199340
     76          1           0       -4.064202   -3.782909   -2.140630
     77          1           0       -4.322116   -2.031000   -2.321040
     78          1           0       -2.925574   -2.802857   -3.096220
     79          6           0       -3.706185   -2.421188    0.252810
     80          1           0       -3.153496   -2.171417    1.170320
     81          1           0       -4.425937   -1.611770    0.061530
     82          1           0       -4.276993   -3.345460    0.416000
     83          1           0        1.384841   -0.518207    0.034200
     84          6           0        0.151219    0.279940   -3.084840
     85          8           0        0.233397    1.191600   -2.243930
     86          6           0       -1.128891    0.070927   -3.871490
     87          1           0       -0.903041    0.147528   -4.946690
     88          1           0       -1.475518   -0.959524   -3.697450
     89          6           0        2.468330   -0.332945   -2.648550
     90          1           0        3.259500   -0.254433   -3.415430
     91          1           0        2.425388    0.638755   -2.145830
     92          7           0        1.195791   -0.540678   -3.338320
     93          6           0        1.202993   -1.602328   -4.323820
     94          1           0        1.608115   -2.514137   -3.866450
     95          1           0        0.197624   -1.822050   -4.688460
     96          1           0        1.834293   -1.327816   -5.183700
     97          6           0       -2.233293    1.033485   -3.479030
     98          1           0       -2.588832    0.801324   -2.468820
     99          1           0       -1.887795    2.074046   -3.496720
    100          6           0       -5.277874    1.670218   -0.273090
    101          9           0       -5.635193    1.073347    0.867800
    102          9           0       -6.204206    2.586396   -0.565940
    103          9           0       -5.314962    0.730018   -1.228100
    104          6           0        4.265220    4.272129    0.401730
    105          9           0        4.737569    4.881920   -0.692580
    106          9           0        4.497618    5.095240    1.431870
    107          9           0        4.974863    3.162661    0.594130
    108          1           0       -3.082552    0.935333   -4.166440
 ---------------------------------------------------------------------
 Rotational constants (GHZ):           0.0532520           0.0470710           0.0375995
 General basis read from cards:  (5D, 7F)
 ======================================================================================================
                                       Pseudopotential Parameters
 ======================================================================================================
  Center     Atomic      Valence      Angular      Power
  Number     Number     Electrons     Momentum     of R      Exponent        Coefficient   SO-Coeffient
 ======================================================================================================
    1          6
                                   No pseudopotential on this center.
    2          6
                                   No pseudopotential on this center.
    3          6
                                   No pseudopotential on this center.
    4          6
                                   No pseudopotential on this center.
    5          6
                                   No pseudopotential on this center.
    6          6
                                   No pseudopotential on this center.
    7          6
                                   No pseudopotential on this center.
    8          6
                                   No pseudopotential on this center.
    9          6
                                   No pseudopotential on this center.
   10          6
                                   No pseudopotential on this center.
   11          1
                                   No pseudopotential on this center.
   12          1
                                   No pseudopotential on this center.
   13          1
                                   No pseudopotential on this center.
   14          1
                                   No pseudopotential on this center.
   15          1
                                   No pseudopotential on this center.
   16          1
                                   No pseudopotential on this center.
   17          7
                                   No pseudopotential on this center.
   18          7
                                   No pseudopotential on this center.
   19         77           17
                                      G and up 
                                                     1      823.5880147       -0.15780140    0.00000000
                                                     2      364.6613336    -1517.52704460    0.00000000
                                                     2       55.7082801     -316.53065290    0.00000000
                                                     2       12.0464544      -91.88809410    0.00000000
                                                     2        3.5120610       -9.22417730    0.00000000
                                      S - G
                                                     0      188.0490770        3.15780140    0.00000000
                                                     1      340.4194712       26.83225770    0.00000000
                                                     2      128.2373673      800.42500070    0.00000000
                                                     2       33.8644961      369.40506830    0.00000000
                                                     2        4.7560005      242.41718990    0.00000000
                                                     2        3.9649974     -118.21732820    0.00000000
                                      P - G
                                                     0      289.7291139        2.15780140    0.00000000
                                                     1       87.4633789       61.96786100    0.00000000
                                                     2       30.4363766      269.05819860    0.00000000
                                                     2        4.0553412      231.16547930    0.00000000
                                                     2        3.5525341     -133.69526670    0.00000000
                                      D - G
                                                     0      136.4017106        3.15780140    0.00000000
                                                     1       95.0776925       45.93498030    0.00000000
                                                     2       49.2258410      359.03446680    0.00000000
                                                     2       15.0874145      176.47401190    0.00000000
                                                     2        4.0405764       54.51552860    0.00000000
                                      F - G
                                                     0      127.3507908        3.95461970    0.00000000
                                                     1       66.2364374       52.97736550    0.00000000
                                                     2       34.4299229      274.86433830    0.00000000
                                                     2       10.1995721      137.20473380    0.00000000
                                                     2        2.5409702       14.86333050    0.00000000
   20          8
                                   No pseudopotential on this center.
   21          8
                                   No pseudopotential on this center.
   22          8
                                   No pseudopotential on this center.
   23          5
                                   No pseudopotential on this center.
   24          5
                                   No pseudopotential on this center.
   25          5
                                   No pseudopotential on this center.
   26          8
                                   No pseudopotential on this center.
   27          8
                                   No pseudopotential on this center.
   28          6
                                   No pseudopotential on this center.
   29          6
                                   No pseudopotential on this center.
   30          6
                                   No pseudopotential on this center.
   31          6
                                   No pseudopotential on this center.
   32          6
                                   No pseudopotential on this center.
   33          6
                                   No pseudopotential on this center.
   34          8
                                   No pseudopotential on this center.
   35          6
                                   No pseudopotential on this center.
   36          1
                                   No pseudopotential on this center.
   37          1
                                   No pseudopotential on this center.
   38          1
                                   No pseudopotential on this center.
   39          6
                                   No pseudopotential on this center.
   40          1
                                   No pseudopotential on this center.
   41          1
                                   No pseudopotential on this center.
   42          1
                                   No pseudopotential on this center.
   43          6
                                   No pseudopotential on this center.
   44          1
                                   No pseudopotential on this center.
   45          1
                                   No pseudopotential on this center.
   46          1
                                   No pseudopotential on this center.
   47          6
                                   No pseudopotential on this center.
   48          1
                                   No pseudopotential on this center.
   49          1
                                   No pseudopotential on this center.
   50          1
                                   No pseudopotential on this center.
   51          6
                                   No pseudopotential on this center.
   52          1
                                   No pseudopotential on this center.
   53          1
                                   No pseudopotential on this center.
   54          1
                                   No pseudopotential on this center.
   55          6
                                   No pseudopotential on this center.
   56          1
                                   No pseudopotential on this center.
   57          1
                                   No pseudopotential on this center.
   58          1
                                   No pseudopotential on this center.
   59          6
                                   No pseudopotential on this center.
   60          1
                                   No pseudopotential on this center.
   61          1
                                   No pseudopotential on this center.
   62          1
                                   No pseudopotential on this center.
   63          6
                                   No pseudopotential on this center.
   64          1
                                   No pseudopotential on this center.
   65          1
                                   No pseudopotential on this center.
   66          1
                                   No pseudopotential on this center.
   67          6
                                   No pseudopotential on this center.
   68          1
                                   No pseudopotential on this center.
   69          1
                                   No pseudopotential on this center.
   70          1
                                   No pseudopotential on this center.
   71          6
                                   No pseudopotential on this center.
   72          1
                                   No pseudopotential on this center.
   73          1
                                   No pseudopotential on this center.
   74          1
                                   No pseudopotential on this center.
   75          6
                                   No pseudopotential on this center.
   76          1
                                   No pseudopotential on this center.
   77          1
                                   No pseudopotential on this center.
   78          1
                                   No pseudopotential on this center.
   79          6
                                   No pseudopotential on this center.
   80          1
                                   No pseudopotential on this center.
   81          1
                                   No pseudopotential on this center.
   82          1
                                   No pseudopotential on this center.
   83          1
                                   No pseudopotential on this center.
   84          6
                                   No pseudopotential on this center.
   85          8
                                   No pseudopotential on this center.
   86          6
                                   No pseudopotential on this center.
   87          1
                                   No pseudopotential on this center.
   88          1
                                   No pseudopotential on this center.
   89          6
                                   No pseudopotential on this center.
   90          1
                                   No pseudopotential on this center.
   91          1
                                   No pseudopotential on this center.
   92          7
                                   No pseudopotential on this center.
   93          6
                                   No pseudopotential on this center.
   94          1
                                   No pseudopotential on this center.
   95          1
                                   No pseudopotential on this center.
   96          1
                                   No pseudopotential on this center.
   97          6
                                   No pseudopotential on this center.
   98          1
                                   No pseudopotential on this center.
   99          1
                                   No pseudopotential on this center.
  100          6
                                   No pseudopotential on this center.
  101          9
                                   No pseudopotential on this center.
  102          9
                                   No pseudopotential on this center.
  103          9
                                   No pseudopotential on this center.
  104          6
                                   No pseudopotential on this center.
  105          9
                                   No pseudopotential on this center.
  106          9
                                   No pseudopotential on this center.
  107          9
                                   No pseudopotential on this center.
  108          1
                                   No pseudopotential on this center.
 ======================================================================================================
 There are   940 symmetry adapted cartesian basis functions of A   symmetry.
 There are   884 symmetry adapted basis functions of A   symmetry.
   884 basis functions,  1767 primitive gaussians,   940 cartesian basis functions
   213 alpha electrons      213 beta electrons
       nuclear repulsion energy      9611.0432353529 Hartrees.
 NAtoms=  108 NActive=  108 NUniq=  108 SFac= 1.00D+00 NAtFMM=   60 NAOKFM=T Big=T
 Integral buffers will be    131072 words long.
 Raffenetti 2 integral format.
 Two-electron integral symmetry is turned on.
 One-electron integrals computed using PRISM.
   1 Symmetry operations used in ECPInt.
 ECPInt:  NShTT=   54615 NPrTT=  339395 LenC2=   40915 LenP2D=  126757.
 LDataN:  DoStor=T MaxTD1= 6 Len=  172
 NBasis=   884 RedAO= T EigKep=  4.44D-04  NBF=   884
 NBsUse=   884 1.00D-06 EigRej= -1.00D+00 NBFU=   884
 Defaulting to unpruned grid for atomic number  77.
 ExpMin= 2.90D-02 ExpMax= 7.00D+03 ExpMxC= 1.05D+03 IAcc=3 IRadAn=         5 AccDes= 0.00D+00
 Harris functional with IExCor= 1009 and IRadAn=       5 diagonalized for initial guess.
 HarFok:  IExCor= 1009 AccDes= 0.00D+00 IRadAn=         5 IDoV= 1 UseB2=F ITyADJ=14
 ICtDFT=  3500011 ScaDFX=  1.000000  1.000000  1.000000  1.000000
 Defaulting to unpruned grid for atomic number  77.
 FoFCou: FMM=F IPFlag=           0 FMFlag=      100000 FMFlg1=        2001
         NFxFlg=           0 DoJE=T BraDBF=F KetDBF=T FulRan=T
         wScrn=  0.000000 ICntrl=       500 IOpCl=  0 I1Cent=   200000004 NGrid=           0
         NMat0=    1 NMatS0=      1 NMatT0=    0 NMatD0=    1 NMtDS0=    0 NMtDT0=    0
 Petite list used in FoFCou.
 Requested convergence on RMS density matrix=1.00D-08 within 128 cycles.
 Requested convergence on MAX density matrix=1.00D-06.
 Requested convergence on             energy=1.00D-06.
 No special actions if energy rises.
 Defaulting to unpruned grid for atomic number  77.
 Defaulting to unpruned grid for atomic number  77.
 Defaulting to unpruned grid for atomic number  77.
 Defaulting to unpruned grid for atomic number  77.
 Defaulting to unpruned grid for atomic number  77.
 Defaulting to unpruned grid for atomic number  77.
 Defaulting to unpruned grid for atomic number  77.
 Defaulting to unpruned grid for atomic number  77.
 Defaulting to unpruned grid for atomic number  77.
 Defaulting to unpruned grid for atomic number  77.
 Defaulting to unpruned grid for atomic number  77.
 Defaulting to unpruned grid for atomic number  77.
 Defaulting to unpruned grid for atomic number  77.
 Defaulting to unpruned grid for atomic number  77.
 Defaulting to unpruned grid for atomic number  77.
 Defaulting to unpruned grid for atomic number  77.
 SCF Done:  E(RM06) =  -2833.58116652     A.U. after   16 cycles
            NFock= 16  Conv=0.89D-08     -V/T= 2.0320
 DoSCS=F DFT=T ScalE2(SS,OS)=  1.000000  1.000000
 Range of M.O.s used for correlation:     1   884
 NBasis=   884 NAE=   213 NBE=   213 NFC=     0 NFV=     0
 NROrb=    884 NOA=   213 NOB=   213 NVA=   671 NVB=   671
   1 Symmetry operations used in ECPInt.
 ECPInt:  NShTT=   54615 NPrTT=  339395 LenC2=   40915 LenP2D=  126757.
 LDataN:  DoStor=T MaxTD1= 7 Len=  274
 Number of processors reduced to   7 by ecpmxn.
 Symmetrizing basis deriv contribution to polar:
 IMax=3 JMax=2 DiffMx= 0.00D+00
 G2DrvN: will do   109 centers at a time, making    1 passes.
 Calling FoFCou, ICntrl=  3107 FMM=T I1Cent=   0 AccDes= 0.00D+00.
 Defaulting to unpruned grid for atomic number  77.
 Defaulting to unpruned grid for atomic number  77.
 Defaulting to unpruned grid for atomic number  77.
 Defaulting to unpruned grid for atomic number  77.
 Defaulting to unpruned grid for atomic number  77.
 Defaulting to unpruned grid for atomic number  77.
 Defaulting to unpruned grid for atomic number  77.
 Defaulting to unpruned grid for atomic number  77.
 Defaulting to unpruned grid for atomic number  77.
 Defaulting to unpruned grid for atomic number  77.
 Defaulting to unpruned grid for atomic number  77.
 Defaulting to unpruned grid for atomic number  77.
 Defaulting to unpruned grid for atomic number  77.
 Defaulting to unpruned grid for atomic number  77.
 Defaulting to unpruned grid for atomic number  77.
 Defaulting to unpruned grid for atomic number  77.
 End of G2Drv F.D. properties file   721 does not exist.
 End of G2Drv F.D. properties file   722 does not exist.
 End of G2Drv F.D. properties file   788 does not exist.
          IDoAtm=11111111111111111111111111111111111111111111111111
          IDoAtm=11111111111111111111111111111111111111111111111111
          IDoAtm=11111111
          Differentiating once with respect to electric field.
                with respect to dipole field.
          Differentiating once with respect to nuclear coordinates.
 Defaulting to unpruned grid for atomic number  77.
 CalDSu exits because no D1Ps are significant.
 Defaulting to unpruned grid for atomic number  77.
 Defaulting to unpruned grid for atomic number  77.
 Defaulting to unpruned grid for atomic number  77.
 Defaulting to unpruned grid for atomic number  77.
 Defaulting to unpruned grid for atomic number  77.
 Defaulting to unpruned grid for atomic number  77.
 Defaulting to unpruned grid for atomic number  77.
 Defaulting to unpruned grid for atomic number  77.
 Defaulting to unpruned grid for atomic number  77.
 Defaulting to unpruned grid for atomic number  77.
 Defaulting to unpruned grid for atomic number  77.
 Defaulting to unpruned grid for atomic number  77.
 Defaulting to unpruned grid for atomic number  77.
 Defaulting to unpruned grid for atomic number  77.
 Defaulting to unpruned grid for atomic number  77.
 Defaulting to unpruned grid for atomic number  77.
          There are   327 degrees of freedom in the 1st order CPHF.  IDoFFX=6 NUNeed=     3.
    324 vectors produced by pass  0 Test12= 1.43D-13 1.00D-09 XBig12= 5.54D+02 1.14D+01.
 AX will form    72 AO Fock derivatives at one time.
    324 vectors produced by pass  1 Test12= 1.43D-13 1.00D-09 XBig12= 8.57D+01 1.33D+00.
    324 vectors produced by pass  2 Test12= 1.43D-13 1.00D-09 XBig12= 1.22D+00 1.28D-01.
    324 vectors produced by pass  3 Test12= 1.43D-13 1.00D-09 XBig12= 1.02D-02 1.02D-02.
    324 vectors produced by pass  4 Test12= 1.43D-13 1.00D-09 XBig12= 4.53D-05 4.84D-04.
    287 vectors produced by pass  5 Test12= 1.43D-13 1.00D-09 XBig12= 1.03D-07 1.61D-05.
     83 vectors produced by pass  6 Test12= 1.43D-13 1.00D-09 XBig12= 1.56D-10 6.37D-07.
      3 vectors produced by pass  7 Test12= 1.43D-13 1.00D-09 XBig12= 1.99D-13 3.07D-08.
 InvSVY:  IOpt=1 It=  1 EMax= 6.67D-15
 Solved reduced A of dimension  1993 with   327 vectors.
 Isotropic polarizability for W=    0.000000      495.77 Bohr**3.
 End of Minotr F.D. properties file   721 does not exist.
 End of Minotr F.D. properties file   722 does not exist.
 End of Minotr F.D. properties file   788 does not exist.
 Hyperfine terms turned off by default for NAtoms > 100.

 **********************************************************************

            Population analysis using the SCF Density.

 **********************************************************************

 Orbital symmetries:
       Occupied  (A) (A) (A) (A) (A) (A) (A) (A) (A) (A) (A) (A)
                 (A) (A) (A) (A) (A) (A) (A) (A) (A) (A) (A) (A)
                 (A) (A) (A) (A) (A) (A) (A) (A) (A) (A) (A) (A)
                 (A) (A) (A) (A) (A) (A) (A) (A) (A) (A) (A) (A)
                 (A) (A) (A) (A) (A) (A) (A) (A) (A) (A) (A) (A)
                 (A) (A) (A) (A) (A) (A) (A) (A) (A) (A) (A) (A)
                 (A) (A) (A) (A) (A) (A) (A) (A) (A) (A) (A) (A)
                 (A) (A) (A) (A) (A) (A) (A) (A) (A) (A) (A) (A)
                 (A) (A) (A) (A) (A) (A) (A) (A) (A) (A) (A) (A)
                 (A) (A) (A) (A) (A) (A) (A) (A) (A) (A) (A) (A)
                 (A) (A) (A) (A) (A) (A) (A) (A) (A) (A) (A) (A)
                 (A) (A) (A) (A) (A) (A) (A) (A) (A) (A) (A) (A)
                 (A) (A) (A) (A) (A) (A) (A) (A) (A) (A) (A) (A)
                 (A) (A) (A) (A) (A) (A) (A) (A) (A) (A) (A) (A)
                 (A) (A) (A) (A) (A) (A) (A) (A) (A) (A) (A) (A)
                 (A) (A) (A) (A) (A) (A) (A) (A) (A) (A) (A) (A)
                 (A) (A) (A) (A) (A) (A) (A) (A) (A) (A) (A) (A)
                 (A) (A) (A) (A) (A) (A) (A) (A) (A)
       Virtual   (A) (A) (A) (A) (A) (A) (A) (A) (A) (A) (A) (A)
                 (A) (A) (A) (A) (A) (A) (A) (A) (A) (A) (A) (A)
                 (A) (A) (A) (A) (A) (A) (A) (A) (A) (A) (A) (A)
                 (A) (A) (A) (A) (A) (A) (A) (A) (A) (A) (A) (A)
                 (A) (A) (A) (A) (A) (A) (A) (A) (A) (A) (A) (A)
                 (A) (A) (A) (A) (A) (A) (A) (A) (A) (A) (A) (A)
                 (A) (A) (A) (A) (A) (A) (A) (A) (A) (A) (A) (A)
                 (A) (A) (A) (A) (A) (A) (A) (A) (A) (A) (A) (A)
                 (A) (A) (A) (A) (A) (A) (A) (A) (A) (A) (A) (A)
                 (A) (A) (A) (A) (A) (A) (A) (A) (A) (A) (A) (A)
                 (A) (A) (A) (A) (A) (A) (A) (A) (A) (A) (A) (A)
                 (A) (A) (A) (A) (A) (A) (A) (A) (A) (A) (A) (A)
                 (A) (A) (A) (A) (A) (A) (A) (A) (A) (A) (A) (A)
                 (A) (A) (A) (A) (A) (A) (A) (A) (A) (A) (A) (A)
                 (A) (A) (A) (A) (A) (A) (A) (A) (A) (A) (A) (A)
                 (A) (A) (A) (A) (A) (A) (A) (A) (A) (A) (A) (A)
                 (A) (A) (A) (A) (A) (A) (A) (A) (A) (A) (A) (A)
                 (A) (A) (A) (A) (A) (A) (A) (A) (A) (A) (A) (A)
                 (A) (A) (A) (A) (A) (A) (A) (A) (A) (A) (A) (A)
                 (A) (A) (A) (A) (A) (A) (A) (A) (A) (A) (A) (A)
                 (A) (A) (A) (A) (A) (A) (A) (A) (A) (A) (A) (A)
                 (A) (A) (A) (A) (A) (A) (A) (A) (A) (A) (A) (A)
                 (A) (A) (A) (A) (A) (A) (A) (A) (A) (A) (A) (A)
                 (A) (A) (A) (A) (A) (A) (A) (A) (A) (A) (A) (A)
                 (A) (A) (A) (A) (A) (A) (A) (A) (A) (A) (A) (A)
                 (A) (A) (A) (A) (A) (A) (A) (A) (A) (A) (A) (A)
                 (A) (A) (A) (A) (A) (A) (A) (A) (A) (A) (A) (A)
                 (A) (A) (A) (A) (A) (A) (A) (A) (A) (A) (A) (A)
                 (A) (A) (A) (A) (A) (A) (A) (A) (A) (A) (A) (A)
                 (A) (A) (A) (A) (A) (A) (A) (A) (A) (A) (A) (A)
                 (A) (A) (A) (A) (A) (A) (A) (A) (A) (A) (A) (A)
                 (A) (A) (A) (A) (A) (A) (A) (A) (A) (A) (A) (A)
                 (A) (A) (A) (A) (A) (A) (A) (A) (A) (A) (A) (A)
                 (A) (A) (A) (A) (A) (A) (A) (A) (A) (A) (A) (A)
                 (A) (A) (A) (A) (A) (A) (A) (A) (A) (A) (A) (A)
                 (A) (A) (A) (A) (A) (A) (A) (A) (A) (A) (A) (A)
                 (A) (A) (A) (A) (A) (A) (A) (A) (A) (A) (A) (A)
                 (A) (A) (A) (A) (A) (A) (A) (A) (A) (A) (A) (A)
                 (A) (A) (A) (A) (A) (A) (A) (A) (A) (A) (A) (A)
                 (A) (A) (A) (A) (A) (A) (A) (A) (A) (A) (A) (A)
                 (A) (A) (A) (A) (A) (A) (A) (A) (A) (A) (A) (A)
                 (A) (A) (A) (A) (A) (A) (A) (A) (A) (A) (A) (A)
                 (A) (A) (A) (A) (A) (A) (A) (A) (A) (A) (A) (A)
                 (A) (A) (A) (A) (A) (A) (A) (A) (A) (A) (A) (A)
                 (A) (A) (A) (A) (A) (A) (A) (A) (A) (A) (A) (A)
                 (A) (A) (A) (A) (A) (A) (A) (A) (A) (A) (A) (A)
                 (A) (A) (A) (A) (A) (A) (A) (A) (A) (A) (A) (A)
                 (A) (A) (A) (A) (A) (A) (A) (A) (A) (A) (A) (A)
                 (A) (A) (A) (A) (A) (A) (A) (A) (A) (A) (A) (A)
                 (A) (A) (A) (A) (A) (A) (A) (A) (A) (A) (A) (A)
                 (A) (A) (A) (A) (A) (A) (A) (A) (A) (A) (A) (A)
                 (A) (A) (A) (A) (A) (A) (A) (A) (A) (A) (A) (A)
                 (A) (A) (A) (A) (A) (A) (A) (A) (A) (A) (A) (A)
                 (A) (A) (A) (A) (A) (A) (A) (A) (A) (A) (A) (A)
                 (A) (A) (A) (A) (A) (A) (A) (A) (A) (A) (A) (A)
                 (A) (A) (A) (A) (A) (A) (A) (A) (A) (A) (A)
 The electronic state is 1-A.
 Alpha  occ. eigenvalues --  -24.83305 -24.83273 -24.82756 -24.82700 -24.82577
 Alpha  occ. eigenvalues --  -24.82568 -19.21475 -19.21270 -19.19797 -19.19630
 Alpha  occ. eigenvalues --  -19.19416 -19.19195 -19.18819 -14.45613 -14.45192
 Alpha  occ. eigenvalues --  -14.43189 -10.51509 -10.51322 -10.35101 -10.33175
 Alpha  occ. eigenvalues --  -10.32754 -10.31826 -10.30811 -10.30312 -10.29954
 Alpha  occ. eigenvalues --  -10.29782 -10.29756 -10.29585 -10.29410 -10.29278
 Alpha  occ. eigenvalues --  -10.29108 -10.28907 -10.28855 -10.28457 -10.28243
 Alpha  occ. eigenvalues --  -10.27607 -10.24951 -10.24863 -10.23052 -10.22762
 Alpha  occ. eigenvalues --  -10.22729 -10.22538 -10.22468 -10.22206 -10.22153
 Alpha  occ. eigenvalues --  -10.21991 -10.21934 -10.21878 -10.21819 -10.21055
 Alpha  occ. eigenvalues --  -10.20635  -6.81167  -6.78445  -6.78189  -3.60141
 Alpha  occ. eigenvalues --   -2.02831  -2.02124  -2.01302  -1.35864  -1.35678
 Alpha  occ. eigenvalues --   -1.27387  -1.27267  -1.26803  -1.26574  -1.07178
 Alpha  occ. eigenvalues --   -1.05547  -1.05149  -1.04938  -1.00878  -1.00557
 Alpha  occ. eigenvalues --   -0.98572  -0.98414  -0.98023  -0.94603  -0.86820
 Alpha  occ. eigenvalues --   -0.85907  -0.84294  -0.80720  -0.80643  -0.79918
 Alpha  occ. eigenvalues --   -0.79435  -0.78378  -0.75721  -0.74917  -0.74484
 Alpha  occ. eigenvalues --   -0.73959  -0.72520  -0.72313  -0.70530  -0.70202
 Alpha  occ. eigenvalues --   -0.70065  -0.69548  -0.69407  -0.68777  -0.67392
 Alpha  occ. eigenvalues --   -0.67120  -0.66785  -0.66490  -0.65355  -0.63316
 Alpha  occ. eigenvalues --   -0.62037  -0.61841  -0.61616  -0.61460  -0.61413
 Alpha  occ. eigenvalues --   -0.61100  -0.60787  -0.60524  -0.60311  -0.56848
 Alpha  occ. eigenvalues --   -0.55610  -0.54564  -0.54452  -0.54052  -0.53613
 Alpha  occ. eigenvalues --   -0.53368  -0.52884  -0.52216  -0.51585  -0.51071
 Alpha  occ. eigenvalues --   -0.49926  -0.49432  -0.49222  -0.49190  -0.49095
 Alpha  occ. eigenvalues --   -0.48907  -0.48519  -0.48234  -0.47513  -0.47361
 Alpha  occ. eigenvalues --   -0.46834  -0.46634  -0.46459  -0.46199  -0.46034
 Alpha  occ. eigenvalues --   -0.45871  -0.45678  -0.45415  -0.45291  -0.45077
 Alpha  occ. eigenvalues --   -0.44929  -0.44778  -0.44322  -0.44217  -0.44114
 Alpha  occ. eigenvalues --   -0.43670  -0.43359  -0.43280  -0.43091  -0.43064
 Alpha  occ. eigenvalues --   -0.42946  -0.42871  -0.42591  -0.42353  -0.41184
 Alpha  occ. eigenvalues --   -0.40796  -0.40357  -0.40134  -0.40017  -0.39879
 Alpha  occ. eigenvalues --   -0.39852  -0.39722  -0.39394  -0.39311  -0.39213
 Alpha  occ. eigenvalues --   -0.39058  -0.38807  -0.38672  -0.38525  -0.38387
 Alpha  occ. eigenvalues --   -0.38204  -0.37478  -0.37237  -0.37157  -0.37060
 Alpha  occ. eigenvalues --   -0.36665  -0.36444  -0.36141  -0.35889  -0.35765
 Alpha  occ. eigenvalues --   -0.35737  -0.35649  -0.35585  -0.35217  -0.34984
 Alpha  occ. eigenvalues --   -0.34691  -0.34647  -0.34391  -0.34125  -0.33838
 Alpha  occ. eigenvalues --   -0.33218  -0.33094  -0.32749  -0.32630  -0.31971
 Alpha  occ. eigenvalues --   -0.30903  -0.30680  -0.30625  -0.30370  -0.29703
 Alpha  occ. eigenvalues --   -0.29185  -0.28399  -0.27926  -0.27204  -0.26840
 Alpha  occ. eigenvalues --   -0.26544  -0.25329  -0.25158  -0.24955  -0.23848
 Alpha  occ. eigenvalues --   -0.20355  -0.20018  -0.18742
 Alpha virt. eigenvalues --   -0.08548  -0.04814  -0.03789  -0.00407   0.02272
 Alpha virt. eigenvalues --    0.03594   0.04336   0.05324   0.06411   0.07033
 Alpha virt. eigenvalues --    0.07434   0.08067   0.09037   0.09206   0.09318
 Alpha virt. eigenvalues --    0.10111   0.10365   0.10796   0.11489   0.11719
 Alpha virt. eigenvalues --    0.12083   0.12285   0.12588   0.12860   0.13069
 Alpha virt. eigenvalues --    0.13621   0.13827   0.14191   0.14486   0.14565
 Alpha virt. eigenvalues --    0.14911   0.14987   0.15135   0.15431   0.15717
 Alpha virt. eigenvalues --    0.15987   0.16005   0.16203   0.16475   0.16689
 Alpha virt. eigenvalues --    0.16908   0.17080   0.17173   0.17552   0.17699
 Alpha virt. eigenvalues --    0.17771   0.18258   0.18313   0.18424   0.18701
 Alpha virt. eigenvalues --    0.18867   0.19062   0.19231   0.19411   0.19511
 Alpha virt. eigenvalues --    0.20055   0.20110   0.20249   0.20456   0.20536
 Alpha virt. eigenvalues --    0.20641   0.20985   0.21263   0.21424   0.21949
 Alpha virt. eigenvalues --    0.22256   0.22301   0.22426   0.22659   0.22763
 Alpha virt. eigenvalues --    0.22889   0.23164   0.23391   0.23671   0.23775
 Alpha virt. eigenvalues --    0.23913   0.24378   0.24645   0.24803   0.24842
 Alpha virt. eigenvalues --    0.25400   0.25503   0.25698   0.25816   0.26421
 Alpha virt. eigenvalues --    0.26513   0.26667   0.26712   0.27323   0.27502
 Alpha virt. eigenvalues --    0.27606   0.27951   0.27970   0.28371   0.28410
 Alpha virt. eigenvalues --    0.29046   0.29572   0.30091   0.30182   0.31032
 Alpha virt. eigenvalues --    0.31662   0.32205   0.32497   0.32917   0.34212
 Alpha virt. eigenvalues --    0.34837   0.35213   0.35502   0.35667   0.36321
 Alpha virt. eigenvalues --    0.36635   0.37037   0.37608   0.38481   0.38911
 Alpha virt. eigenvalues --    0.39506   0.39898   0.40435   0.40910   0.41295
 Alpha virt. eigenvalues --    0.42696   0.44634   0.45970   0.46842   0.47162
 Alpha virt. eigenvalues --    0.47906   0.47942   0.48714   0.49018   0.49562
 Alpha virt. eigenvalues --    0.50311   0.50553   0.50691   0.51118   0.51348
 Alpha virt. eigenvalues --    0.51766   0.52037   0.52268   0.52619   0.52906
 Alpha virt. eigenvalues --    0.53128   0.53300   0.53615   0.54017   0.54501
 Alpha virt. eigenvalues --    0.55283   0.55374   0.55902   0.56161   0.56373
 Alpha virt. eigenvalues --    0.56802   0.57225   0.57540   0.57699   0.57929
 Alpha virt. eigenvalues --    0.58255   0.58305   0.58854   0.59002   0.59555
 Alpha virt. eigenvalues --    0.59613   0.59740   0.60174   0.60353   0.60474
 Alpha virt. eigenvalues --    0.60742   0.61210   0.61532   0.61675   0.62470
 Alpha virt. eigenvalues --    0.62716   0.62968   0.63383   0.63565   0.63810
 Alpha virt. eigenvalues --    0.64187   0.64462   0.64839   0.65216   0.65621
 Alpha virt. eigenvalues --    0.65994   0.66582   0.66775   0.66942   0.67340
 Alpha virt. eigenvalues --    0.67693   0.67978   0.68183   0.68448   0.68796
 Alpha virt. eigenvalues --    0.69343   0.69896   0.70155   0.70606   0.71080
 Alpha virt. eigenvalues --    0.71180   0.71321   0.71730   0.72056   0.72518
 Alpha virt. eigenvalues --    0.72822   0.73114   0.73699   0.73890   0.74057
 Alpha virt. eigenvalues --    0.74233   0.74494   0.74783   0.75029   0.75579
 Alpha virt. eigenvalues --    0.75845   0.76414   0.77122   0.77244   0.77516
 Alpha virt. eigenvalues --    0.78054   0.78294   0.78709   0.78973   0.79094
 Alpha virt. eigenvalues --    0.79447   0.80307   0.80626   0.81950   0.82099
 Alpha virt. eigenvalues --    0.82475   0.82726   0.83355   0.83595   0.83886
 Alpha virt. eigenvalues --    0.84118   0.84351   0.84399   0.84764   0.84911
 Alpha virt. eigenvalues --    0.85331   0.85567   0.85877   0.86112   0.86574
 Alpha virt. eigenvalues --    0.86773   0.87140   0.87203   0.87541   0.87859
 Alpha virt. eigenvalues --    0.88253   0.88570   0.88619   0.89023   0.89266
 Alpha virt. eigenvalues --    0.89523   0.89576   0.90119   0.90516   0.90724
 Alpha virt. eigenvalues --    0.91075   0.91362   0.91626   0.91691   0.91891
 Alpha virt. eigenvalues --    0.92375   0.92529   0.92984   0.93022   0.93737
 Alpha virt. eigenvalues --    0.93962   0.94233   0.94448   0.94767   0.94775
 Alpha virt. eigenvalues --    0.95424   0.95714   0.95846   0.96192   0.96768
 Alpha virt. eigenvalues --    0.97062   0.97603   0.97751   0.97949   0.98341
 Alpha virt. eigenvalues --    0.98746   0.99545   0.99631   0.99975   1.00053
 Alpha virt. eigenvalues --    1.00909   1.01362   1.01818   1.02078   1.03148
 Alpha virt. eigenvalues --    1.03650   1.04535   1.04671   1.05191   1.05512
 Alpha virt. eigenvalues --    1.05959   1.06230   1.07285   1.07495   1.08209
 Alpha virt. eigenvalues --    1.08697   1.09129   1.09492   1.09830   1.09913
 Alpha virt. eigenvalues --    1.10153   1.10365   1.11082   1.11521   1.12562
 Alpha virt. eigenvalues --    1.12671   1.13735   1.14084   1.15134   1.15850
 Alpha virt. eigenvalues --    1.16821   1.17063   1.17211   1.17482   1.17895
 Alpha virt. eigenvalues --    1.18159   1.18406   1.18714   1.19030   1.19821
 Alpha virt. eigenvalues --    1.20114   1.20440   1.21580   1.21748   1.22433
 Alpha virt. eigenvalues --    1.22711   1.23487   1.24149   1.24872   1.25379
 Alpha virt. eigenvalues --    1.25752   1.26203   1.26319   1.26816   1.27682
 Alpha virt. eigenvalues --    1.28078   1.28884   1.29943   1.30465   1.31398
 Alpha virt. eigenvalues --    1.31566   1.32177   1.32528   1.33263   1.33557
 Alpha virt. eigenvalues --    1.33658   1.34216   1.34244   1.34510   1.34952
 Alpha virt. eigenvalues --    1.35387   1.36228   1.36877   1.37363   1.37419
 Alpha virt. eigenvalues --    1.37734   1.38065   1.38300   1.38708   1.39023
 Alpha virt. eigenvalues --    1.39888   1.40151   1.40903   1.41307   1.41694
 Alpha virt. eigenvalues --    1.42054   1.42595   1.43022   1.43181   1.43689
 Alpha virt. eigenvalues --    1.44016   1.44603   1.44937   1.45416   1.45850
 Alpha virt. eigenvalues --    1.46683   1.46934   1.48313   1.48581   1.48813
 Alpha virt. eigenvalues --    1.48955   1.50360   1.51283   1.51760   1.52608
 Alpha virt. eigenvalues --    1.52851   1.54102   1.54907   1.55488   1.55847
 Alpha virt. eigenvalues --    1.56613   1.57192   1.58340   1.59016   1.60650
 Alpha virt. eigenvalues --    1.60785   1.61141   1.61382   1.62945   1.63833
 Alpha virt. eigenvalues --    1.64156   1.64575   1.64988   1.65403   1.65998
 Alpha virt. eigenvalues --    1.66360   1.67362   1.67779   1.68282   1.68883
 Alpha virt. eigenvalues --    1.69412   1.69672   1.70010   1.70630   1.70851
 Alpha virt. eigenvalues --    1.71326   1.71689   1.71845   1.72582   1.73807
 Alpha virt. eigenvalues --    1.74625   1.75507   1.75874   1.76631   1.76785
 Alpha virt. eigenvalues --    1.76933   1.77245   1.77416   1.78191   1.78667
 Alpha virt. eigenvalues --    1.79217   1.80162   1.81077   1.81288   1.81845
 Alpha virt. eigenvalues --    1.82061   1.82483   1.82836   1.83294   1.83696
 Alpha virt. eigenvalues --    1.84080   1.84783   1.84864   1.84941   1.85706
 Alpha virt. eigenvalues --    1.85973   1.86560   1.86982   1.87443   1.87632
 Alpha virt. eigenvalues --    1.87973   1.88494   1.88874   1.89199   1.89277
 Alpha virt. eigenvalues --    1.89771   1.90086   1.90296   1.91006   1.91473
 Alpha virt. eigenvalues --    1.91552   1.92239   1.92543   1.92922   1.93133
 Alpha virt. eigenvalues --    1.93314   1.93744   1.93847   1.94499   1.94518
 Alpha virt. eigenvalues --    1.94860   1.94994   1.95953   1.96083   1.96406
 Alpha virt. eigenvalues --    1.96899   1.97590   1.98299   1.99151   1.99382
 Alpha virt. eigenvalues --    2.00014   2.00179   2.00767   2.01291   2.02060
 Alpha virt. eigenvalues --    2.02226   2.02377   2.02541   2.02755   2.02907
 Alpha virt. eigenvalues --    2.03133   2.03620   2.04286   2.04414   2.04717
 Alpha virt. eigenvalues --    2.04983   2.05572   2.06213   2.06545   2.06694
 Alpha virt. eigenvalues --    2.07021   2.07143   2.07629   2.08180   2.08342
 Alpha virt. eigenvalues --    2.08463   2.09159   2.09567   2.09725   2.09875
 Alpha virt. eigenvalues --    2.10530   2.10811   2.11261   2.11588   2.11975
 Alpha virt. eigenvalues --    2.12254   2.12713   2.12888   2.13701   2.14170
 Alpha virt. eigenvalues --    2.14712   2.14982   2.15532   2.15869   2.16081
 Alpha virt. eigenvalues --    2.16707   2.17288   2.17541   2.18095   2.18564
 Alpha virt. eigenvalues --    2.18910   2.19317   2.19577   2.19637   2.19838
 Alpha virt. eigenvalues --    2.20658   2.20730   2.21249   2.21642   2.22105
 Alpha virt. eigenvalues --    2.22388   2.22674   2.22904   2.23109   2.23470
 Alpha virt. eigenvalues --    2.24211   2.24660   2.24833   2.25016   2.25553
 Alpha virt. eigenvalues --    2.26056   2.26402   2.26998   2.27183   2.27401
 Alpha virt. eigenvalues --    2.27753   2.28090   2.28321   2.28623   2.29329
 Alpha virt. eigenvalues --    2.30769   2.31270   2.32273   2.32408   2.32946
 Alpha virt. eigenvalues --    2.33551   2.33718   2.33955   2.34655   2.35666
 Alpha virt. eigenvalues --    2.36057   2.36440   2.36824   2.39031   2.39418
 Alpha virt. eigenvalues --    2.40114   2.40685   2.41972   2.43437   2.43563
 Alpha virt. eigenvalues --    2.44214   2.44626   2.45419   2.46390   2.47631
 Alpha virt. eigenvalues --    2.48355   2.48597   2.49122   2.49283   2.49317
 Alpha virt. eigenvalues --    2.49588   2.49681   2.50231   2.50562   2.52342
 Alpha virt. eigenvalues --    2.53016   2.53555   2.54143   2.59063   2.59232
 Alpha virt. eigenvalues --    2.59922   2.61026   2.61341   2.61997   2.63137
 Alpha virt. eigenvalues --    2.63993   2.64458   2.64869   2.65356   2.66051
 Alpha virt. eigenvalues --    2.66418   2.67801   2.68089   2.70255   2.71359
 Alpha virt. eigenvalues --    2.75015   2.76481   2.76751   2.77084   2.77197
 Alpha virt. eigenvalues --    2.77429   2.78849   2.79500   2.79828   2.79940
 Alpha virt. eigenvalues --    2.80393   2.80894   2.81529   2.81682   2.82021
 Alpha virt. eigenvalues --    2.82343   2.84889   2.85137   2.86983   2.87484
 Alpha virt. eigenvalues --    2.88819   2.90261   2.91752   2.92384   2.92986
 Alpha virt. eigenvalues --    2.94016   2.95370   2.96519   2.97866   2.98171
 Alpha virt. eigenvalues --    3.00485   3.02193   3.03179   3.05162   3.05663
 Alpha virt. eigenvalues --    3.06085   3.06515   3.07438   3.09066   3.09366
 Alpha virt. eigenvalues --    3.11386   3.12126   3.12571   3.14126   3.14319
 Alpha virt. eigenvalues --    3.18025   3.21026   3.26664   3.31594   3.45213
 Alpha virt. eigenvalues --   11.14122
          Condensed to atoms (all electrons):
 Mulliken charges:
               1
     1  C    0.319184
     2  C    0.069997
     3  C   -0.071970
     4  C   -0.160330
     5  C   -0.190007
     6  C    0.322139
     7  C    0.030550
     8  C   -0.074355
     9  C   -0.157589
    10  C   -0.188591
    11  H    0.221036
    12  H    0.197532
    13  H    0.174046
    14  H    0.234608
    15  H    0.201416
    16  H    0.179271
    17  N   -0.556043
    18  N   -0.497122
    19  Ir  -0.017063
    20  O   -0.508124
    21  O   -0.512522
    22  O   -0.539574
    23  B    0.705433
    24  B    0.444855
    25  B    0.413939
    26  O   -0.518892
    27  O   -0.535275
    28  C    0.302766
    29  C    0.295353
    30  C    0.299621
    31  C    0.298388
    32  C    0.276841
    33  C    0.293338
    34  O   -0.500488
    35  C   -0.506332
    36  H    0.145505
    37  H    0.164863
    38  H    0.167836
    39  C   -0.502878
    40  H    0.152516
    41  H    0.141387
    42  H    0.180644
    43  C   -0.513393
    44  H    0.175637
    45  H    0.168030
    46  H    0.147604
    47  C   -0.505255
    48  H    0.166265
    49  H    0.161512
    50  H    0.149158
    51  C   -0.508997
    52  H    0.174187
    53  H    0.151675
    54  H    0.163093
    55  C   -0.504353
    56  H    0.168216
    57  H    0.233099
    58  H    0.135636
    59  C   -0.503877
    60  H    0.163678
    61  H    0.161884
    62  H    0.157736
    63  C   -0.505358
    64  H    0.150064
    65  H    0.146302
    66  H    0.204579
    67  C   -0.507835
    68  H    0.165147
    69  H    0.164468
    70  H    0.149654
    71  C   -0.471529
    72  H    0.140223
    73  H    0.161106
    74  H    0.142138
    75  C   -0.507203
    76  H    0.152897
    77  H    0.166587
    78  H    0.157315
    79  C   -0.516785
    80  H    0.182804
    81  H    0.155557
    82  H    0.150067
    83  H    0.004642
    84  C    0.633631
    85  O   -0.513351
    86  C   -0.395713
    87  H    0.170624
    88  H    0.179944
    89  C   -0.383660
    90  H    0.164091
    91  H    0.216292
    92  N   -0.372629
    93  C   -0.382472
    94  H    0.204811
    95  H    0.179006
    96  H    0.174000
    97  C   -0.487293
    98  H    0.188492
    99  H    0.170416
   100  C    0.975904
   101  F   -0.309427
   102  F   -0.318723
   103  F   -0.308344
   104  C    0.968784
   105  F   -0.313806
   106  F   -0.312782
   107  F   -0.305876
   108  H    0.155797
 Sum of Mulliken charges =  -0.00000
 Mulliken charges with hydrogens summed into heavy atoms:
               1
     1  C    0.319184
     2  C    0.291033
     3  C   -0.071970
     4  C    0.037202
     5  C   -0.015961
     6  C    0.322139
     7  C    0.265158
     8  C   -0.074355
     9  C    0.043827
    10  C   -0.009320
    17  N   -0.556043
    18  N   -0.497122
    19  Ir  -0.012421
    20  O   -0.508124
    21  O   -0.512522
    22  O   -0.539574
    23  B    0.705433
    24  B    0.444855
    25  B    0.413939
    26  O   -0.518892
    27  O   -0.535275
    28  C    0.302766
    29  C    0.295353
    30  C    0.299621
    31  C    0.298388
    32  C    0.276841
    33  C    0.293338
    34  O   -0.500488
    35  C   -0.028127
    39  C   -0.028330
    43  C   -0.022122
    47  C   -0.028321
    51  C   -0.020042
    55  C    0.032597
    59  C   -0.020579
    63  C   -0.004413
    67  C   -0.028567
    71  C   -0.028062
    75  C   -0.030404
    79  C   -0.028357
    84  C    0.633631
    85  O   -0.513351
    86  C   -0.045145
    89  C   -0.003277
    92  N   -0.372629
    93  C    0.175345
    97  C    0.027412
   100  C    0.975904
   101  F   -0.309427
   102  F   -0.318723
   103  F   -0.308344
   104  C    0.968784
   105  F   -0.313806
   106  F   -0.312782
   107  F   -0.305876
 APT charges:
               1
     1  C    0.118071
     2  C    0.025773
     3  C   -0.120727
     4  C    0.000432
     5  C   -0.148323
     6  C    0.257705
     7  C    0.075762
     8  C   -0.185094
     9  C    0.091410
    10  C   -0.206243
    11  H    0.114318
    12  H    0.065318
    13  H    0.039896
    14  H    0.083130
    15  H    0.056881
    16  H    0.045715
    17  N    0.023896
    18  N   -0.147325
    19  Ir  -0.510630
    20  O   -0.997601
    21  O   -0.893648
    22  O   -0.962912
    23  B    1.149428
    24  B    1.331606
    25  B    1.238998
    26  O   -0.985169
    27  O   -0.999683
    28  C    0.509142
    29  C    0.478834
    30  C    0.474663
    31  C    0.464518
    32  C    0.471218
    33  C    0.488924
    34  O   -0.893908
    35  C   -0.003628
    36  H   -0.020423
    37  H   -0.003391
    38  H   -0.002621
    39  C   -0.037221
    40  H   -0.005099
    41  H   -0.032324
    42  H    0.037382
    43  C   -0.037445
    44  H    0.003442
    45  H   -0.001901
    46  H   -0.023661
    47  C   -0.004941
    48  H   -0.000996
    49  H   -0.002033
    50  H   -0.021326
    51  C   -0.005101
    52  H    0.002191
    53  H   -0.007523
    54  H   -0.011475
    55  C   -0.064932
    56  H    0.003455
    57  H    0.074729
    58  H   -0.020590
    59  C   -0.022746
    60  H   -0.000387
    61  H   -0.004169
    62  H   -0.013187
    63  C   -0.028458
    64  H   -0.005787
    65  H   -0.011470
    66  H    0.048863
    67  C    0.004769
    68  H   -0.000275
    69  H   -0.003613
    70  H   -0.020948
    71  C   -0.010258
    72  H   -0.010973
    73  H    0.010596
    74  H   -0.033329
    75  C   -0.005001
    76  H   -0.018028
    77  H    0.005414
    78  H   -0.010681
    79  C   -0.032233
    80  H    0.023553
    81  H   -0.012568
    82  H   -0.022145
    83  H   -0.147285
    84  C    1.078991
    85  O   -0.925053
    86  C    0.016391
    87  H   -0.033903
    88  H    0.005666
    89  C   -0.013451
    90  H   -0.030722
    91  H    0.050700
    92  N   -0.695078
    93  C    0.290213
    94  H    0.025765
    95  H    0.020808
    96  H   -0.055048
    97  C    0.044354
    98  H    0.018687
    99  H   -0.000710
   100  C    1.776038
   101  F   -0.552515
   102  F   -0.590354
   103  F   -0.547067
   104  C    1.850415
   105  F   -0.612212
   106  F   -0.625940
   107  F   -0.521111
   108  H   -0.023460
 Sum of APT charges =  -0.00000
 APT charges with hydrogens summed into heavy atoms:
               1
     1  C    0.118071
     2  C    0.140091
     3  C   -0.120727
     4  C    0.065750
     5  C   -0.108427
     6  C    0.257705
     7  C    0.158892
     8  C   -0.185094
     9  C    0.148291
    10  C   -0.160528
    17  N    0.023896
    18  N   -0.147325
    19  Ir  -0.657915
    20  O   -0.997601
    21  O   -0.893648
    22  O   -0.962912
    23  B    1.149428
    24  B    1.331606
    25  B    1.238998
    26  O   -0.985169
    27  O   -0.999683
    28  C    0.509142
    29  C    0.478834
    30  C    0.474663
    31  C    0.464518
    32  C    0.471218
    33  C    0.488924
    34  O   -0.893908
    35  C   -0.030063
    39  C   -0.037261
    43  C   -0.059565
    47  C   -0.029295
    51  C   -0.021908
    55  C   -0.007338
    59  C   -0.040489
    63  C    0.003148
    67  C   -0.020067
    71  C   -0.043964
    75  C   -0.028297
    79  C   -0.043392
    84  C    1.078991
    85  O   -0.925053
    86  C   -0.011845
    89  C    0.006527
    92  N   -0.695078
    93  C    0.281737
    97  C    0.038872
   100  C    1.776038
   101  F   -0.552515
   102  F   -0.590354
   103  F   -0.547067
   104  C    1.850415
   105  F   -0.612212
   106  F   -0.625940
   107  F   -0.521111
 Electronic spatial extent (au):  <R**2>=          32849.8336
 Charge=              0.0000 electrons
 Dipole moment (field-independent basis, Debye):
    X=             -1.1564    Y=              2.6286    Z=             -2.6729  Tot=              3.9231
 Quadrupole moment (field-independent basis, Debye-Ang):
   XX=           -346.6050   YY=           -297.1170   ZZ=           -324.0243
   XY=            -13.0009   XZ=             -1.8846   YZ=              0.7470
 Traceless Quadrupole moment (field-independent basis, Debye-Ang):
   XX=            -24.0229   YY=             25.4651   ZZ=             -1.4422
   XY=            -13.0009   XZ=             -1.8846   YZ=              0.7470
 Octapole moment (field-independent basis, Debye-Ang**2):
  XXX=             13.0401  YYY=            270.1176  ZZZ=            -38.4859  XYY=            -47.3277
  XXY=             -8.4720  XXZ=             -7.6605  XZZ=              4.9334  YZZ=              1.0782
  YYZ=            -16.6719  XYZ=              1.1731
 Hexadecapole moment (field-independent basis, Debye-Ang**3):
 XXXX=         -17118.3332 YYYY=         -14238.1885 ZZZZ=          -9039.7689 XXXY=            -55.7062
 XXXZ=             59.9629 YYYX=            -67.2486 YYYZ=            -47.7163 ZZZX=            -49.8167
 ZZZY=             53.4838 XXYY=          -5189.1319 XXZZ=          -4331.7814 YYZZ=          -4186.7236
 XXYZ=            -10.5626 YYXZ=             54.1240 ZZXY=             58.8729
 N-N= 9.611043235353D+03 E-N=-2.583051172743D+04  KE= 2.745759725370D+03
  Exact polarizability:     536.059      -5.754     543.996      12.600      -8.200     407.246
 Approx polarizability:     786.396      -6.255     785.158      24.600     -17.762     572.063
   1 Symmetry operations used in ECPInt.
 ECPInt:  NShTT=   54615 NPrTT=  339395 LenC2=   40915 LenP2D=  126757.
 LDataN:  DoStor=T MaxTD1= 8 Len=  415
 Calling FoFJK, ICntrl=    100127 FMM=F ISym2X=0 I1Cent= 0 IOpClX= 0 NMat=1 NMatS=1 NMatT=0.
 Defaulting to unpruned grid for atomic number  77.
 Defaulting to unpruned grid for atomic number  77.
 Defaulting to unpruned grid for atomic number  77.
 Defaulting to unpruned grid for atomic number  77.
 Defaulting to unpruned grid for atomic number  77.
 Defaulting to unpruned grid for atomic number  77.
 Defaulting to unpruned grid for atomic number  77.
 Defaulting to unpruned grid for atomic number  77.
 Defaulting to unpruned grid for atomic number  77.
 Defaulting to unpruned grid for atomic number  77.
 Defaulting to unpruned grid for atomic number  77.
 Defaulting to unpruned grid for atomic number  77.
 Defaulting to unpruned grid for atomic number  77.
 Defaulting to unpruned grid for atomic number  77.
 Defaulting to unpruned grid for atomic number  77.
 Defaulting to unpruned grid for atomic number  77.
 Full mass-weighted force constant matrix:
 Low frequencies ---   -8.4030   -4.6272   -1.8118   -0.0005   -0.0001    0.0005
 Low frequencies ---   15.4497   24.2083   27.0103
 Diagonal vibrational polarizability:
       80.2355025      69.0368951     174.8529980
 Harmonic frequencies (cm**-1), IR intensities (KM/Mole), Raman scattering
 activities (A**4/AMU), depolarization ratios for plane and unpolarized
 incident light, reduced masses (AMU), force constants (mDyne/A),
 and normal coordinates:
                      1                      2                      3
                      A                      A                      A
 Frequencies --     15.2771                23.6226                26.9304
 Red. masses --      7.9524                 5.5221                 5.7237
 Frc consts  --      0.0011                 0.0018                 0.0024
 IR Inten    --      0.0766                 0.5837                 0.1202
  Atom AN      X      Y      Z        X      Y      Z        X      Y      Z
     1   6     0.01   0.00  -0.04    -0.00   0.00   0.05     0.02  -0.01  -0.00
     2   6     0.00   0.00  -0.05     0.00  -0.01  -0.03    -0.00   0.00   0.01
     3   6     0.00   0.01  -0.05    -0.00   0.01   0.07     0.01   0.01  -0.03
     4   6     0.01   0.01  -0.05    -0.01   0.03   0.16     0.03  -0.00  -0.06
     5   6     0.01   0.00  -0.04    -0.01   0.02   0.14     0.03  -0.01  -0.04
     6   6     0.00  -0.00  -0.00     0.00  -0.01   0.03     0.02  -0.03   0.01
     7   6    -0.00  -0.01   0.02     0.01  -0.02  -0.03     0.01  -0.06   0.02
     8   6    -0.01  -0.00   0.11     0.01  -0.02   0.01     0.03  -0.07   0.00
     9   6    -0.00   0.01   0.14     0.01  -0.01   0.06     0.05  -0.06  -0.01
    10   6     0.00   0.01   0.08     0.00  -0.00   0.07     0.04  -0.04  -0.01
    11   1    -0.00   0.00  -0.06     0.01  -0.02  -0.11    -0.02   0.01   0.03
    12   1     0.01   0.01  -0.05    -0.02   0.05   0.25     0.04   0.00  -0.10
    13   1     0.01   0.00  -0.04    -0.01   0.03   0.22     0.04  -0.01  -0.07
    14   1    -0.00  -0.02  -0.01     0.01  -0.03  -0.06    -0.01  -0.07   0.03
    15   1    -0.01   0.02   0.22     0.01  -0.01   0.09     0.06  -0.07  -0.02
    16   1     0.00   0.02   0.11     0.00   0.01   0.11     0.06  -0.03  -0.02
    17   7     0.00   0.00  -0.05     0.00  -0.01  -0.03    -0.00  -0.00   0.02
    18   7     0.00  -0.01  -0.04     0.00  -0.02  -0.02     0.00  -0.04   0.02
    19  77    -0.00  -0.00  -0.05     0.00  -0.01  -0.04    -0.02  -0.02   0.01
    20   8     0.05   0.06  -0.04    -0.03   0.02  -0.01    -0.00  -0.01   0.01
    21   8    -0.01  -0.01  -0.07     0.03   0.04   0.01     0.02   0.12  -0.05
    22   8    -0.02  -0.03   0.01     0.01  -0.02  -0.04    -0.03  -0.02   0.01
    23   5    -0.02  -0.02  -0.05     0.03   0.03   0.01    -0.00   0.09  -0.02
    24   5     0.03   0.03  -0.03    -0.02   0.01  -0.04    -0.01  -0.03   0.01
    25   5    -0.01  -0.01  -0.01     0.01  -0.01  -0.04    -0.03  -0.01   0.00
    26   8    -0.00  -0.00   0.02    -0.00  -0.01  -0.03    -0.02  -0.01   0.01
    27   8     0.04   0.04  -0.01    -0.03   0.01  -0.06    -0.01  -0.05   0.01
    28   6     0.07   0.07  -0.00    -0.05   0.03  -0.05    -0.00  -0.04   0.01
    29   6     0.07   0.07  -0.01    -0.05   0.03  -0.02     0.01  -0.01   0.01
    30   6    -0.02  -0.03   0.06     0.00  -0.01  -0.03    -0.02  -0.02   0.01
    31   6    -0.01  -0.02   0.06    -0.00  -0.01  -0.03    -0.01  -0.02   0.01
    32   6     0.00   0.00  -0.05     0.02   0.06   0.03     0.05   0.14  -0.02
    33   6    -0.01  -0.01  -0.02     0.01   0.04   0.06     0.01   0.12   0.04
    34   8    -0.02  -0.02  -0.02     0.03   0.03   0.03     0.01   0.09   0.02
    35   6     0.09   0.10  -0.03    -0.07   0.05  -0.00     0.00   0.00   0.01
    36   1     0.11   0.12  -0.01    -0.09   0.06  -0.01     0.01   0.00   0.02
    37   1     0.09   0.10  -0.04    -0.07   0.05   0.02     0.01   0.02   0.02
    38   1     0.09   0.11  -0.05    -0.08   0.06  -0.01    -0.01   0.01   0.01
    39   6     0.07   0.06   0.02    -0.03   0.03   0.00     0.03  -0.02   0.02
    40   1     0.07   0.06   0.00    -0.03   0.03   0.03     0.04   0.00   0.02
    41   1     0.09   0.08   0.04    -0.04   0.03   0.00     0.05  -0.02   0.02
    42   1     0.05   0.04   0.03    -0.01   0.01  -0.01     0.04  -0.03   0.02
    43   6     0.08   0.09  -0.03    -0.07   0.04  -0.07    -0.03  -0.04   0.00
    44   1     0.07   0.08  -0.06    -0.07   0.04  -0.06    -0.04  -0.03   0.00
    45   1     0.07   0.08  -0.02    -0.07   0.03  -0.09    -0.04  -0.06   0.00
    46   1     0.10   0.11  -0.02    -0.09   0.05  -0.06    -0.03  -0.03   0.01
    47   6     0.08   0.07   0.04    -0.05   0.03  -0.06     0.01  -0.06   0.01
    48   1     0.08   0.07   0.05    -0.06   0.02  -0.08     0.00  -0.07   0.01
    49   1     0.07   0.06   0.06    -0.04   0.02  -0.05     0.03  -0.06   0.01
    50   1     0.10   0.09   0.05    -0.07   0.04  -0.05     0.02  -0.05   0.01
    51   6     0.01   0.01  -0.07     0.02   0.05   0.03     0.06   0.14  -0.08
    52   1     0.02   0.02  -0.09     0.04   0.06   0.00     0.09   0.15  -0.13
    53   1     0.02   0.02  -0.05     0.02   0.06   0.05     0.08   0.15  -0.06
    54   1    -0.01  -0.01  -0.08     0.01   0.02   0.02     0.01   0.11  -0.10
    55   6     0.03   0.03  -0.05     0.05   0.09   0.03     0.12   0.18  -0.00
    56   1     0.03   0.04  -0.08     0.06   0.09   0.01     0.15   0.18  -0.06
    57   1     0.02   0.03  -0.04     0.05   0.10   0.04     0.12   0.18   0.05
    58   1     0.04   0.04  -0.04     0.05   0.10   0.05     0.16   0.20   0.01
    59   6    -0.03  -0.02  -0.02    -0.00  -0.01   0.10    -0.03   0.05   0.07
    60   1    -0.04  -0.03  -0.00    -0.01  -0.02   0.12    -0.06   0.03   0.11
    61   1    -0.04  -0.03  -0.04     0.01  -0.04   0.08    -0.04   0.01   0.02
    62   1    -0.02  -0.02  -0.02    -0.02   0.00   0.13    -0.03   0.07   0.09
    63   6     0.01   0.01   0.01    -0.02   0.09   0.09     0.00   0.18   0.10
    64   1    -0.00  -0.00   0.03    -0.02   0.08   0.11    -0.01   0.16   0.15
    65   1     0.02   0.02   0.01    -0.03   0.11   0.11     0.00   0.21   0.12
    66   1     0.01   0.01   0.01    -0.01   0.12   0.06     0.01   0.22   0.07
    67   6     0.00  -0.00   0.09    -0.01  -0.01  -0.02     0.00  -0.02   0.01
    68   1     0.01   0.00   0.08    -0.01  -0.01  -0.01     0.01  -0.01   0.01
    69   1     0.02   0.02   0.09    -0.01  -0.00  -0.02    -0.00  -0.02   0.01
    70   1    -0.01  -0.01   0.12    -0.00  -0.01  -0.02     0.01  -0.03   0.02
    71   6    -0.04  -0.05   0.05     0.00  -0.02  -0.02    -0.01  -0.01   0.01
    72   1    -0.06  -0.06   0.02     0.01  -0.03  -0.03    -0.03  -0.01   0.01
    73   1    -0.03  -0.03   0.04     0.00  -0.02  -0.01    -0.00   0.01   0.01
    74   1    -0.05  -0.07   0.08     0.01  -0.02  -0.02     0.00  -0.02   0.01
    75   6    -0.05  -0.06   0.08     0.01   0.00  -0.04    -0.02  -0.04   0.02
    76   1    -0.04  -0.06   0.12    -0.02   0.01  -0.04    -0.01  -0.04   0.03
    77   1    -0.05  -0.06   0.08     0.03   0.02  -0.04    -0.03  -0.05   0.02
    78   1    -0.06  -0.08   0.07     0.01  -0.01  -0.04    -0.03  -0.03   0.01
    79   6     0.00   0.00   0.08    -0.00  -0.00  -0.04    -0.01  -0.02   0.02
    80   1     0.02   0.03   0.06    -0.00   0.00  -0.04    -0.01  -0.02   0.01
    81   1     0.00   0.00   0.07     0.00   0.00  -0.04    -0.01  -0.02   0.02
    82   1     0.01   0.01   0.11    -0.01   0.00  -0.04    -0.01  -0.02   0.02
    83   1    -0.01  -0.01  -0.06     0.00  -0.01  -0.02    -0.03  -0.04  -0.02
    84   6    -0.04  -0.05  -0.04     0.02  -0.04  -0.04    -0.04   0.04   0.01
    85   8    -0.03  -0.04  -0.06    -0.01  -0.04  -0.05    -0.04   0.03   0.02
    86   6    -0.05  -0.07  -0.02     0.04  -0.08  -0.06    -0.05   0.03   0.03
    87   1    -0.07  -0.08  -0.03     0.05  -0.01  -0.05    -0.06  -0.00   0.03
    88   1    -0.05  -0.07   0.00     0.09  -0.10  -0.11    -0.06   0.04   0.07
    89   6    -0.04  -0.04  -0.07     0.03   0.01  -0.01    -0.03   0.07  -0.03
    90   1    -0.05  -0.05  -0.08     0.04   0.02   0.00    -0.04   0.07  -0.05
    91   1    -0.03  -0.03  -0.08     0.01   0.01  -0.02    -0.02   0.08  -0.05
    92   7    -0.05  -0.05  -0.05     0.05  -0.02  -0.03    -0.04   0.05  -0.01
    93   6    -0.06  -0.07  -0.03     0.09  -0.02  -0.02    -0.05   0.04  -0.00
    94   1    -0.04  -0.06  -0.02     0.03  -0.03   0.01    -0.00   0.06  -0.01
    95   1    -0.06  -0.08  -0.01     0.11   0.00  -0.10    -0.06   0.01   0.05
    96   1    -0.07  -0.08  -0.04     0.16  -0.04   0.02    -0.09   0.05  -0.03
    97   6    -0.05  -0.07  -0.02    -0.02  -0.16  -0.03    -0.03   0.06   0.02
    98   1    -0.05  -0.07  -0.02    -0.08  -0.28  -0.07     0.01   0.11   0.05
    99   1    -0.05  -0.07  -0.02    -0.06  -0.14   0.11    -0.03   0.06  -0.04
   100   6    -0.00   0.01  -0.03    -0.01   0.02   0.11     0.01   0.01  -0.06
   101   9    -0.00   0.06  -0.00     0.03   0.00   0.11    -0.03   0.04  -0.05
   102   9     0.01   0.01  -0.06    -0.02   0.04   0.18     0.02   0.01  -0.11
   103   9    -0.01  -0.02   0.01    -0.07   0.05   0.09     0.03  -0.02  -0.03
   104   6    -0.01   0.00   0.19     0.01  -0.03  -0.00     0.04  -0.10  -0.01
   105   9     0.04   0.05   0.24    -0.00  -0.02  -0.01     0.05  -0.14  -0.02
   106   9    -0.07  -0.04   0.24     0.03  -0.04  -0.00     0.06  -0.08  -0.03
   107   9    -0.02  -0.00   0.18     0.01  -0.03  -0.02     0.01  -0.11   0.02
   108   1    -0.06  -0.07  -0.02     0.03  -0.12  -0.09    -0.06   0.03   0.06
                      4                      5                      6
                      A                      A                      A
 Frequencies --     32.8832                34.7956                36.6973
 Red. masses --      6.4497                 8.8439                 4.0637
 Frc consts  --      0.0041                 0.0063                 0.0032
 IR Inten    --      2.0856                 0.3838                 0.3159
  Atom AN      X      Y      Z        X      Y      Z        X      Y      Z
     1   6     0.02  -0.01  -0.11     0.01   0.00  -0.04     0.01   0.01   0.00
     2   6     0.01   0.01   0.01    -0.01   0.01  -0.03    -0.00   0.02  -0.01
     3   6     0.01   0.01  -0.03    -0.00   0.02  -0.03     0.00   0.02  -0.00
     4   6     0.02  -0.01  -0.12     0.01   0.01  -0.06     0.01   0.02   0.01
     5   6     0.03  -0.02  -0.17     0.01   0.00  -0.06     0.01   0.02   0.01
     6   6     0.02  -0.01  -0.12     0.01  -0.00  -0.03     0.01   0.00   0.00
     7   6     0.01   0.00  -0.01    -0.00  -0.00   0.03     0.00  -0.02  -0.01
     8   6     0.02  -0.00  -0.07    -0.00  -0.00   0.05     0.02  -0.03  -0.01
     9   6     0.03  -0.02  -0.17     0.01  -0.00   0.01     0.03  -0.02  -0.00
    10   6     0.03  -0.03  -0.20     0.01  -0.00  -0.02     0.02  -0.00   0.00
    11   1    -0.00   0.02   0.09    -0.01   0.01  -0.01    -0.01   0.01  -0.03
    12   1     0.03  -0.02  -0.16     0.01   0.01  -0.06     0.01   0.03   0.02
    13   1     0.04  -0.03  -0.24     0.02  -0.00  -0.08     0.01   0.02   0.02
    14   1     0.01   0.02   0.05    -0.01  -0.00   0.05    -0.01  -0.03  -0.01
    15   1     0.03  -0.03  -0.23     0.01  -0.00   0.03     0.04  -0.02  -0.00
    16   1     0.04  -0.04  -0.28     0.01  -0.00  -0.04     0.03   0.00   0.01
    17   7     0.01   0.00  -0.02    -0.00   0.00  -0.02    -0.00   0.01  -0.01
    18   7     0.01  -0.00  -0.04    -0.00  -0.00  -0.01    -0.00  -0.01  -0.00
    19  77     0.01  -0.00   0.04     0.00   0.00   0.02    -0.01   0.00  -0.01
[...]
 002015,-0.00002783,0.00002843,-0.00003339,-0.00000362,0.00000735,0.000
 17009,0.00002596,-0.00000211,0.00012713,0.00084934,-0.00060145,-0.0053
 7940,0.00657646,0.00789850,-0.00109837,-0.00061803,0.00156614,-0.00012
 404,0.00010920,-0.00051156,-0.00000322,0.00000474,-0.00000600,-0.00000
 271,0.00000156,-0.00000427,0.00001989,-0.00001801,-0.00002631,-0.00021
 513,-0.00042896,-0.00011874,0.00016374,-0.00009696,-0.00007031,-0.0000
 9594,-0.00004731,-0.00018280,-0.00011526,0.00004087,-0.00001283,-0.000
 10238,-0.00012379,0.00008926,0.00002028,-0.00008004,0.00013087,0.00011
 873,-0.00004783,0.00019429,0.00012937,-0.00009307,0.00021158,-0.000027
 43,-0.00006592,0.00000722,-0.00015637,0.00016563,-0.00021226,-0.000081
 51,0.00017210,-0.00034847,0.00004441,0.00013586,-0.00004487,-0.0000059
 5,-0.00009067,0.00003293,0.00000158,-0.00005693,0.00016490,-0.00002297
 ,0.00000822,-0.00008200,-0.00000673,0.00000274,-0.00004130,0.00001829,
 0.00003625,-0.00001000,0.00000619,0.00000983,-0.00000099,-0.00000285,0
 .00007364,-0.00011913,-0.00006686,0.00002414,-0.00004186,0.00007066,-0
 .00010264,0.00010489,-0.00000153,-0.00001727,-0.00000145,0.00000942,0.
 00000673,0.00000464,0.00000813,-0.00001891,0.,-0.00001673,0.00001571,0
 .00001190,-0.00000433,0.00000014,0.00001552,0.00000330,-0.00000490,-0.
 00000370,-0.00000072,-0.00000379,0.00000023,0.00000475,0.00000912,-0.0
 0000138,-0.00001234,-0.00000602,0.00001734,-0.00000193,0.00000583,-0.0
 0001160,0.00000989,0.00000088,-0.00000401,-0.00000315,-0.00000054,0.00
 001227,0.00000294,-0.00000078,0.00001413,0.00000393,-0.00000198,-0.000
 00426,0.00000009,0.00000830,-0.00000057,-0.00000374,-0.00000517,0.0000
 0761,-0.00001353,-0.00002761,-0.00000924,0.00001944,0.00000549,0.00000
 345,0.00000662,-0.00000217,0.00000383,-0.00000397,0.00000900,0.0000088
 9,-0.00004675,-0.00006341,0.00000042,0.00002276,0.00001851,0.00000045,
 -0.00000538,0.00001394,-0.00000390,0.00000279,0.00000417,0.00001383,0.
 00001971,0.00000360,0.00001019,0.00000213,0.00000885,0.00000526,-0.000
 00732,0.00000011,-0.00000270,0.00000324,-0.00001022,0.00000139,0.00000
 530,-0.00000125,0.00000941,0.00000027,0.00000822,0.00000562,0.00000471
 ,-0.00001144,0.00000521,-0.00001248,0.00000158,-0.00000771,0.00000064,
 -0.00000037,-0.00000282,0.00000336,-0.00000433,-0.00000082,-0.00000488
 ,0.00000095,0.00000280,-0.00000070,-0.00000168,0.00000164,-0.00000459,
 0.00000547,-0.00000355,0.00000030,-0.00000305,0.00000490,0.00000108,-0
 .00000142,-0.00000136,-0.00000036,-0.00000189,-0.00000136,-0.00000166,
 -0.00000440,-0.00000149,-0.00000298,-0.00000458,0.00000022,0.00000386,
 0.00000133,-0.00000029,-0.00000128,0.00000384,0.00000372,-0.00000789,-
 0.00000275,0.,0.00000003,0.00000175,-0.00000181,0.00000504,0.00000002,
 0.00000112,-0.00000356,-0.00000519,0.00000108,0.00003663,-0.00000555,-
 0.00000425,0.00002247,0.00007830,0.00005280,-0.00006444,-0.00011062,0.
 00000916,-0.00000170,0.00000438,-0.00001418,-0.00000146,0.00000308,0.0
 0000078,-0.00000108,-0.00000471,-0.00000254,0.00001710,-0.00002147,0.0
 0004710,-0.00000565,0.00003288,0.00002620,0.00003836,0.00002481,-0.000
 02705,-0.00000220,-0.00007667,-0.00000555,-0.00000559,0.00003440,0.000
 00845,0.00000183,-0.00000589,-0.00000610,-0.00000529,-0.00000250,-0.00
 000585,0.00000064,-0.00000186,0.00000058,0.00000347,0.00000595,0.00000
 005,-0.00000196,0.00000391,0.00000192,0.00000410,-0.00000710,0.0000023
 3,0.00012184,0.00005432,-0.00003537,-0.00003746,-0.00003102,0.00003359
 ,-0.00003330,0.00000070,0.00000122,-0.00003039,-0.00002570,-0.00000409
 ,-0.02296821,0.02692988,-0.08112297,-0.01626179,0.05092911,-0.01840455
 ,0.01763940,-0.03995006,0.00361462,0.02818047,-0.04408207,0.08773129,-
 0.00007076,-0.00008126,0.00003443,0.00010814,-0.00004781,-0.00008794,-
 0.00000893,0.00004849,-0.00000895,-0.00001783,-0.00004596,-0.00001011,
 0.00003141,0.00001323,-0.00003024,-0.00000064,0.00003080,0.00002587,0.
 00001238,0.00001011,0.00000600,-0.00000283,0.00000289,0.00000342,0.000
 01207,-0.00000368,0.00000027,-0.00000989,0.00000057,-0.00000106,-0.000
 00200,0.00000685,-0.00001472,0.00000392,-0.00000394,-0.00000654,-0.000
 00670,0.00000040,-0.00000076,0.00000357,0.00000200,0.00000791,-0.00000
 087,-0.00000113,-0.00000014,0.00000108,-0.00000316,0.00000114,-0.00003
 371,0.00010326,0.00016123,0.00001795,0.00000555,-0.00002655,0.00002227
 ,-0.00003017,0.00024681,0.00001391,0.00005040,-0.00009122,-0.00010405,
 0.00014225,-0.00018953,0.00005768,-0.00000123,-0.00004085,0.00002233,-
 0.00028974,0.00029544,-0.00005985,-0.00008691,0.00009198,-0.00012655,-
 0.00008109,0.00001517,0.00007252,0.00004781,0.00001406,0.00005868,0.00
 004284,-0.00009072,-0.00000072,-0.00000328,0.00003512,-0.00001871,-0.0
 0001986,0.00002781,-0.00006884,-0.00007307,-0.00003118,-0.00005276,0.0
 0000152,0.00000177,-0.00000087,-0.00007249,0.00006037,0.00005636,-0.00
 007328,0.00005122,-0.00003313,0.00017370,-0.00013166,0.00000110,0.0000
 0400,-0.00000318,0.00000119,0.00000204,-0.00000532,-0.00000067,-0.0000
 0092,0.00000206,-0.00000041,-0.00000141,0.00000113,0.00000026,0.000003
 52,-0.00000496,0.00000135,-0.00000220,0.00000358,0.00000267,0.00000492
 ,-0.00000427,-0.00000298,-0.00000289,0.00000161,-0.00000087,0.00000021
 ,-0.00000516,0.00000070,0.00000266,0.00000313,0.00000190,-0.00000144,0
 .00000195,-0.00000020,-0.00000009,-0.00000545,-0.00000021,-0.00000071,
 -0.00000572,0.00000352,-0.00000228,0.00000041,-0.00000235,0.00000100,0
 .00000095,0.00000129,0.00000319,-0.00000335,0.00000106,0.00000802,-0.0
 0001127,-0.00000235,-0.00000398,-0.00000024,-0.00000543,0.00000765,-0.
 00000470,0.00000230,-0.00000215,0.00000277,-0.00000397,0.00001465,-0.0
 0000783,0.00000028,-0.00000319,0.00000217,-0.00000174,-0.00000261,0.00
 000582,0.00000112,0.00000585,-0.00001197,-0.00001093,0.00000911,-0.000
 00642,0.00000398,-0.00000475,0.00000339,0.00000804,-0.00000377,-0.0000
 0179,-0.00000761,0.00000863,-0.00000381,-0.00000874,0.00000644,-0.0000
 0525,0.00000417,0.00000368,0.00000396,-0.00000023,0.00000677,-0.000007
 60,-0.00000231,-0.00000237,0.00000153,0.00000722,-0.00000659,-0.000010
 27,0.00000044,-0.00000530,0.00000276,0.00000048,0.00000256,-0.00000555
 ,0.00000380,0.00000670,0.00000237,-0.00000099,-0.00003758,0.00002754,-
 0.00001386,-0.00000209,-0.00001382,0.00000297,-0.00000462,0.00000069,0
 .00001019,0.00002316,-0.00000359,0.00003331,0.00004649,0.00000017,0.00
 000178,-0.00000546,0.00000847,0.00001078,0.00002589,-0.00004990,-0.000
 04810,0.00005947,-0.00002874,0.00001983,0.00001318,0.00001091,-0.00000
 506,-0.00000203,0.00001021,0.00000351,-0.00000820,-0.00000461,0.000004
 15,0.00000623,-0.00000565,0.00004090,-0.00001872,-0.00000859,-0.001095
 67,0.00349976,0.00213065,-0.00015758,0.00044512,-0.00026872,-0.0180305
 3,-0.00362930,-0.01488930,0.00061020,-0.00082970,0.00016247,0.00059913
 ,-0.00000834,-0.00009000,-0.00002252,0.00040079,0.00020769,-0.00015176
 ,0.00000680,-0.00004966,0.00003997,-0.00000870,0.00002649,-0.00163827,
 -0.00015050,-0.00090667,-0.00005936,-0.00036271,-0.00032578,-0.0000163
 7,0.00006637,0.00005183,0.00008207,-0.00002790,-0.00003004,-0.00005118
 ,0.00004214,0.00007610,-0.20447801,-0.01972749,-0.12886489,0.00944815,
 0.00156445,0.00670818,-0.00713788,0.00034753,-0.00537243,-0.00008524,0
 .00004877,-0.00001397,0.00002186,-0.00000262,-0.00000771,0.00004348,-0
 .00002445,0.00001325,0.00008769,-0.00001891,-0.00019808,0.00005128,0.0
 0005187,0.00002310,-0.00001738,-0.00001573,0.00000443,-0.00001814,-0.0
 0002305,-0.00002075,-0.00000818,-0.00001384,-0.00000474,0.22205433,0.0
 0003715,0.00009150,0.00011573,-0.00008401,-0.00001295,0.00004239,0.000
 05173,0.00000205,0.00000701,-0.00003459,-0.00000894,0.00000212,-0.0000
 4947,0.00004805,0.00003295,0.00004318,0.00002811,0.00004004,0.00000877
 ,-0.00001261,0.00000536,-0.00001804,0.00000923,-0.00000150,0.00002149,
 0.00000324,0.00000044,-0.00001906,-0.00000036,-0.00000983,0.00001223,0
 .00000384,-0.00000571,0.00000999,-0.00001569,-0.00001947,-0.00000694,0
 .00000428,0.00000163,-0.00000038,0.00000027,-0.00000172,-0.00000140,-0
 .00000061,0.00000044,0.,0.00000815,0.00000527,0.00003856,-0.00008021,0
 .00006864,-0.00000767,-0.00001342,-0.00000709,-0.00002228,-0.00004075,
 0.00000028,-0.00001481,0.00000521,-0.00001003,0.00002431,-0.00005864,0
 .00008058,-0.00025493,-0.00016690,-0.00007138,0.00004416,0.00012857,-0
 .00012483,0.00003022,-0.00000385,0.00002533,0.00005204,0.00006051,-0.0
 0003437,-0.00005831,-0.00002680,-0.00002647,-0.00001118,-0.00000043,-0
 .00001799,0.00000371,-0.00000151,0.00001327,0.00000125,-0.00000162,0.0
 0000475,0.00013777,0.00012026,0.00012148,0.00004209,-0.00003234,0.0000
 0488,0.00000722,0.00002502,-0.00002048,-0.00000922,0.00001957,-0.00001
 702,-0.00000584,-0.00005896,0.00004586,-0.00000062,-0.00000104,0.00000
 017,0.00000033,0.00000034,-0.00000027,-0.00000132,0.00000056,-0.000000
 19,0.00000003,-0.00000075,-0.00000002,0.00000277,-0.00000058,0.0000007
 5,-0.00000197,0.00000052,-0.00000099,0.00000010,0.00000065,-0.00000016
 ,0.00000086,-0.00000065,0.00000080,-0.00000107,-0.00000096,-0.00000114
 ,0.00000007,-0.00000051,0.00000064,-0.00000048,0.00000045,0.00000124,-
 0.00000003,0.00000050,-0.00000206,-0.00000051,0.00000335,0.00000006,-0
 .00000069,0.00000070,0.00000196,0.00000172,-0.00000328,0.00000104,-0.0
 0000088,-0.00000010,-0.00000256,-0.00000182,-0.00000418,0.00000481,0.0
 0000078,0.00000047,-0.00000049,0.00000267,-0.00000210,0.00000147,-0.00
 000160,0.00000138,0.00000052,0.00000119,-0.00000562,0.00000231,0.00000
 132,-0.00000009,0.00000015,0.00000160,-0.00000222,-0.00000143,-0.00000
 098,-0.00000027,0.00000467,0.00000402,-0.00000180,0.00000418,-0.000000
 31,0.00000067,-0.00000176,-0.00000379,0.00000022,0.00000149,0.00000162
 ,-0.00000209,0.00000018,0.00000251,-0.00000002,0.00000132,0.00000015,-
 0.00000461,-0.00000200,-0.00000268,-0.00000253,0.00000113,0.00000369,0
 .00000037,0.00000303,-0.00000144,0.00000218,0.00000417,-0.00000462,0.0
 0000396,-0.00000184,0.00000128,-0.00000215,-0.00000036,-0.00000114,-0.
 00000693,0.00000056,-0.00000980,0.00001338,-0.00000943,0.00002015,0.00
 000466,0.00000537,-0.00000551,0.00000705,-0.00000623,-0.00000227,-0.00
 001859,-0.00000003,0.00007681,0.00004682,-0.00002291,-0.00003087,0.000
 04195,-0.00005466,-0.00013459,0.00007886,0.00004041,0.00008280,-0.0000
 5280,-0.00004258,-0.00003435,-0.00002830,-0.00002968,0.00000574,0.0000
 0095,-0.00001803,-0.00000542,0.00000915,0.00000929,-0.00000561,-0.0000
 0022,0.00000958,-0.00002526,0.00001104,0.00000647,0.00189923,-0.004463
 46,-0.00323012,-0.00129524,0.00138783,0.00013960,0.01751647,0.00165858
 ,0.01429257,-0.00076207,0.00091252,-0.00003992,-0.00071702,0.00046211,
 0.00046225,0.00010841,-0.00026860,-0.00013777,0.00009680,0.00000309,0.
 00004720,0.00000146,0.00001443,-0.00000300,0.00128434,0.00058213,0.000
 89654,-0.00000223,0.00022717,0.00019560,-0.00000172,-0.00002413,-0.000
 01260,-0.00005550,0.00001042,-0.00000495,0.00000400,-0.00001306,-0.000
 01681,-0.02019251,-0.05027253,-0.01541358,0.00618457,-0.00028653,0.004
 19505,-0.02244804,-0.00045365,-0.02044630,-0.00011323,0.00015886,-0.00
 005129,0.00001921,-0.00002041,0.00000468,0.00007298,-0.00007022,0.0000
 3783,0.00003709,-0.00009257,-0.00004624,0.00005670,0.00000618,0.000002
 20,-0.00001667,-0.00000651,0.00000637,-0.00001491,-0.00000774,-0.00000
 670,-0.00001679,0.00000714,-0.00000153,0.01845429,0.05043990,0.0000927
 9,0.00031091,0.00006628,-0.00035201,-0.00001138,0.00013842,0.00005660,
 0.00006207,-0.00002842,-0.00003303,-0.00002462,0.00003024,0.00002928,-
 0.00003277,0.00009262,0.00003478,0.00001793,0.00002018,0.00001245,-0.0
 0001093,0.00000604,-0.00002072,0.00000918,-0.00000398,0.00001620,-0.00
 000919,0.00000506,-0.00002595,-0.00000465,-0.00000925,-0.00004060,-0.0
 0001549,0.00004253,0.00000148,-0.00004038,-0.00002023,0.00000531,-0.00
 000741,-0.00000693,0.00000318,0.00000234,0.00000006,-0.00000215,-0.000
 00190,0.00000039,0.00000333,0.00000192,0.00000202,0.00013025,-0.000106
 46,-0.00029573,0.00000459,0.00000535,0.00000289,0.00014746,0.00002380,
 0.00001132,-0.00000152,0.00006734,-0.00011289,-0.00002482,0.00002292,-
 0.00000324,0.00031980,0.00064605,-0.00016693,0.00005196,-0.00003839,-0
 .00000185,-0.00007673,-0.00011742,0.00018116,0.00013309,-0.00023620,0.
 00013842,0.00004623,0.00022785,0.00000654,0.00006238,0.00005240,-0.000
 09910,-0.00000207,-0.00001326,0.00004524,-0.00002359,-0.00002574,0.000
 02999,-0.00036460,-0.00031816,-0.00020449,-0.00005249,0.00003148,-0.00
 005054,0.00000590,-0.00001895,0.00000562,0.00001521,-0.00002269,0.0000
 1308,-0.00001327,0.00004827,-0.00001624,0.00000233,0.00000513,-0.00000
 369,0.00000056,0.00000211,-0.00000596,-0.00000151,-0.00000055,0.000000
 92,0.00000010,-0.00000050,0.00000181,0.00000352,0.00000474,-0.00000574
 ,-0.00000042,-0.00000112,0.00000135,0.00000158,0.00000641,-0.00000429,
 -0.00000186,-0.00000420,0.00000276,-0.00000200,0.00000200,-0.00000753,
 0.00000359,0.00000315,0.00000398,-0.00000002,-0.00000208,0.00000278,-0
 .00000034,0.00000028,-0.00000649,-0.00000150,-0.00000084,-0.00000680,0
 .00000358,-0.00000346,-0.00000061,-0.00000294,0.00000341,0.00000119,0.
 00000244,0.00000373,-0.00000318,-0.00000145,0.00000079,0.00000127,0.00
 000058,-0.00000102,0.00000005,-0.00000031,0.00000195,-0.00000144,-0.00
 000127,0.00000003,0.00000174,0.00000270,0.00000646,-0.00000286,0.00000
 263,-0.00000113,0.00000195,0.00000051,-0.00000938,0.00000279,-0.000003
 80,0.00000461,-0.00000232,-0.00000257,0.00000279,-0.00000112,0.0000012
 2,-0.00000089,0.00000191,0.00000176,-0.00000063,-0.00000020,-0.0000025
 4,0.00000235,-0.00000131,-0.00000040,-0.00000107,-0.00000405,0.0000007
 4,0.00000318,0.00000324,-0.00000059,0.00000172,-0.00000150,0.00000046,
 -0.00000409,0.00000168,-0.00001542,0.00000748,-0.00000054,0.00000348,0
 .00000349,-0.00000444,-0.00000201,-0.00000033,-0.00000198,0.00000591,0
 .00001415,0.00000191,0.00001297,-0.00001514,0.00000983,-0.00000687,-0.
 00000293,-0.00000839,0.00000446,-0.00000308,0.00000477,0.00000241,0.00
 002465,0.00000933,-0.00013477,0.00005415,0.00002150,0.00005361,-0.0000
 4596,0.00005378,0.00013434,-0.00003789,-0.00007156,-0.00005466,0.00006
 510,0.00001206,0.00002643,0.00008483,0.00002444,-0.00000247,-0.0000124
 7,0.00002616,0.00000748,-0.00002854,-0.00001874,0.00002337,0.00001221,
 -0.00002105,-0.00004577,0.00001141,0.00000938,0.00188426,-0.00283716,-
 0.00105776,-0.00112688,0.00068978,0.00042013,0.01018714,0.00055295,0.0
 0589688,-0.00025656,0.00062986,0.00070542,-0.00055871,0.00037117,-0.00
 003310,0.00010752,-0.00006350,-0.00005617,0.00002689,0.00000260,0.0000
 2676,0.00001997,0.00000714,0.00000274,0.00043416,0.00034855,0.00052920
 ,-0.00003360,0.00009148,0.00003352,-0.00001916,-0.00000016,-0.00000261
 ,-0.00003599,-0.00003517,-0.00000393,0.00000359,0.00000314,0.00000823,
 -0.13111655,-0.01541599,-0.15437690,-0.02359626,-0.00432243,-0.0154255
 4,0.00270861,0.00045085,0.00043314,-0.00048046,-0.00069899,-0.00096697
 ,0.00007840,0.00007171,0.00024011,0.00010910,0.00010314,0.00013962,0.0
 0004523,0.00045257,0.00072311,0.00008099,0.00002695,0.00001348,-0.0000
 2487,-0.00001292,0.00000850,-0.00002333,-0.00001753,-0.00001675,-0.000
 02160,0.00000171,-0.00000394,0.14145214,0.01897140,0.16292778\\0.00000
 716,-0.00000380,0.00000374,-0.00000293,0.00001127,-0.00000156,0.000009
 53,-0.00000906,-0.00000107,-0.00000461,0.00000038,0.00000294,0.0000005
 7,-0.00000017,0.00000238,-0.00000668,0.00000532,-0.00000365,-0.0000033
 0,-0.00001407,0.00000003,0.00000420,0.00002119,-0.00000181,0.00001108,
 -0.00001002,0.00000444,-0.00000658,-0.00000185,-0.00000221,0.00000096,
 -0.00000106,-0.00000119,-0.00000052,0.00000169,-0.00000065,0.00000182,
 0.00000110,-0.00000012,0.00000015,0.00000103,-0.00000277,0.00000044,0.
 00000210,-0.00000233,0.00000178,-0.00000090,-0.00000190,-0.00000469,-0
 .00000092,-0.00000335,0.00000484,-0.00000127,0.00000039,-0.00000036,0.
 00000514,-0.00000092,0.00000470,-0.00000330,0.00000070,0.00000308,-0.0
 0000730,0.00000477,0.00000398,-0.00000060,-0.00000088,-0.00000207,-0.0
 0000791,-0.00000337,-0.00000841,-0.00000008,0.00000177,0.00000083,-0.0
 0000715,0.00000202,-0.00000311,0.00000366,0.00000087,0.00000346,0.0000
 0148,-0.00000493,0.00000124,-0.00000031,0.00000724,0.00000177,0.000004
 64,-0.00000064,-0.00000659,0.00000499,-0.00000204,0.00000539,0.0000028
 0,-0.00000255,0.00000375,0.00000623,-0.00001113,-0.00000369,0.00000433
 ,0.00000240,0.00000081,0.00000642,0.00000066,0.00000182,-0.00000866,0.
 00000482,0.00000227,0.00000319,-0.00000403,-0.00000127,0.00000089,-0.0
 0000077,0.00000054,0.00000439,-0.00000020,0.00000243,-0.00000535,0.000
 00373,0.00000006,0.00000002,-0.00000058,0.00000153,0.00000321,-0.00000
 287,-0.00000136,0.00000089,-0.00000175,-0.00000326,0.00000332,-0.00000
 152,0.00000135,0.00000076,-0.00000029,0.00000390,-0.00000083,0.0000008
 9,0.00000076,0.00000034,0.00000005,-0.00000510,0.00000186,-0.00000418,
 0.00000307,-0.00000048,0.00000104,0.00000032,0.00000226,0.00000166,0.0
 0000200,0.00000055,0.00000139,0.00000077,-0.00000120,-0.00000159,-0.00
 000012,-0.00000073,-0.00000114,0.00000005,-0.00000062,-0.00000056,-0.0
 0000257,-0.00000046,0.00000233,0.00000066,-0.00000881,0.00000870,-0.00
 000114,-0.00000132,-0.00000188,-0.00000161,0.00000285,-0.00000470,-0.0
 0000026,0.00000203,-0.00000265,0.00000427,-0.00000544,0.00000279,-0.00
 000170,-0.00000150,-0.00000124,-0.00000086,0.00000013,-0.00000122,-0.0
 0000292,0.00000112,-0.00000161,-0.00000127,-0.00000291,-0.00000163,-0.
 00000012,0.00000347,0.00000069,0.00000113,-0.00000093,0.00000170,-0.00
 000056,0.00000058,0.00000045,-0.00000263,-0.00000596,0.00000344,-0.000
 00136,0.00000209,0.00000013,-0.00000049,0.00000212,0.00000093,-0.00000
 052,0.00000091,0.00000114,0.00000716,0.00000504,0.00000818,-0.00000226
 ,-0.00000035,-0.00000196,-0.00000342,-0.00000021,-0.00000015,-0.000005
 10,-0.00000394,-0.00000375,0.00000016,-0.00000028,0.00000045,-0.000000
 31,0.00000179,0.00000064,0.00000068,-0.00000033,0.00000198,-0.00000126
 ,0.00000002,0.00000053,-0.00000039,-0.00000599,0.00000551,-0.00000117,
 -0.00000080,-0.00000125,-0.00000022,0.00000056,0.00000034,0.00000174,0
 .00000313,0.00000046,0.00000216,-0.00000014,0.00000469,-0.00000674,0.0
 0000258,0.00000917,0.00000064,0.00000040,-0.00000371,0.00000052,-0.000
 00056,0.00000503,0.00000050,-0.00000057,-0.00000198,-0.00000054,0.0000
 0101,-0.00000233,-0.00000868,0.00000508,-0.00000119,0.00000137,-0.0000
 0220,-0.00000104,-0.00000078,-0.00000243,-0.00000267,0.00000535,-0.000
 00451,0.00000059,-0.00000570,-0.00000377,0.00000116,-0.00000110,-0.000
 00047,0.00000005,-0.00000168,0.00000109,-0.00000020,0.00000265,0.00000
 096,-0.00000380,0.00000252,-0.00000479,0.00000275,-0.00000205,0.000000
 89,-0.00000335,-0.00000032,0.00000132,-0.00000141,-0.00000238,0.000001
 91,0.00000178,0.00000197,0.00000120,-0.00000185,0.00000011,0.00000147,
 -0.00000117,0.00000104,0.00000376,0.00000536,-0.00000340,0.00000611,-0
 .00001048,-0.00000182,-0.00000457,0.00000536,0.00000064,-0.00000042,-0
 .00000036,0.00000506,-0.00000803,0.00000042,-0.00000083,0.00000030,0.0
 0000150\\\@
 The archive entry for this job was punched.


 THE ENLIGHTENED ONE, BECAUSE HE SAW MANKIND DROWNING  
 IN THE GREAT SEA OF BIRTH, DEATH, AND SORROW, LONGED TO SAVE 
 THEM, FOR THIS HE WAS MOVED TO PITY.                         
 BECAUSE HE SAW MEN OF THE WORLD STRAYING IN FALSE PATHS, AND 
 NONE TO GUIDE THEM, FOR THIS HE WAS MOVED TO PITY.           
                     ..................                       
 BECAUSE HE SAW THE MEN OF THE WORLD PLOUGHING THEIR FIELDS,  
 SOWING THE SEED, TRAFFICKING, HUCKSTERING, BUYING, SELLING,  
 AND AT THE END WINNOWING NOTHING BUT BITTERNESS,             
 FOR THIS HE WAS MOVED TO PITY......                   
                   BUDAH'S PITY - UPSAKA SILA SUTRA           
 Job cpu time:       1 days 19 hours 11 minutes 38.2 seconds.
 Elapsed time:       0 days  2 hours 45 minutes 13.7 seconds.
 File lengths (MBytes):  RWF=   9700 Int=      0 D2E=      0 Chk=     55 Scr=      1
 Normal termination of Gaussian 16 at Sat Dec  7 21:38:33 2024.
