/mnt/lustre/scratch/nvme/SLURM/9663505/usccqdma.BJl3Ss5OGa
OMP_STACKSIZE=0m
GAUSS_PDEF=16
GAUSS_MDEF=65536MB
GAUSS_RDEF=SCF=Direct
 Entering Gaussian System, Link 0=g16.exe
 Initial command:
 /opt/cesga/2020/software/Core/g16/c1/l1.exe "/mnt/lustre/scratch/nvme/SLURM/9663505/usccqdma.BJl3Ss5OGa/Gau-763998.inp" -scrdir="/mnt/lustre/scratch/nvme/SLURM/9663505/usccqdma.BJl3Ss5OGa/"
 Default is to use a total of  16 processors:
                               16 via shared-memory
                                1 via Linda
 Entering Link 1 = /opt/cesga/2020/software/Core/g16/c1/l1.exe PID=    764024.
  
 Copyright (c) 1988-2019, Gaussian, Inc.  All Rights Reserved.
  
 This is part of the Gaussian(R) 16 program.  It is based on
 the Gaussian(R) 09 system (copyright 2009, Gaussian, Inc.),
 the Gaussian(R) 03 system (copyright 2003, Gaussian, Inc.),
 the Gaussian(R) 98 system (copyright 1998, Gaussian, Inc.),
 the Gaussian(R) 94 system (copyright 1995, Gaussian, Inc.),
 the Gaussian 92(TM) system (copyright 1992, Gaussian, Inc.),
 the Gaussian 90(TM) system (copyright 1990, Gaussian, Inc.),
 the Gaussian 88(TM) system (copyright 1988, Gaussian, Inc.),
 the Gaussian 86(TM) system (copyright 1986, Carnegie Mellon
 University), and the Gaussian 82(TM) system (copyright 1983,
 Carnegie Mellon University). Gaussian is a federally registered
 trademark of Gaussian, Inc.
  
 This software contains proprietary and confidential information,
 including trade secrets, belonging to Gaussian, Inc.
  
 This software is provided under written license and may be
 used, copied, transmitted, or stored only in accord with that
 written license.
  
 The following legend is applicable only to US Government
 contracts under FAR:
  
                    RESTRICTED RIGHTS LEGEND
  
 Use, reproduction and disclosure by the US Government is
 subject to restrictions as set forth in subparagraphs (a)
 and (c) of the Commercial Computer Software - Restricted
 Rights clause in FAR 52.227-19.
  
 Gaussian, Inc.
 340 Quinnipiac St., Bldg. 40, Wallingford CT 06492
  
  
 ---------------------------------------------------------------
 Warning -- This program may not be used in any manner that
 competes with the business of Gaussian, Inc. or will provide
 assistance to any competitor of Gaussian, Inc.  The licensee
 of this program is prohibited from giving any competitor of
 Gaussian, Inc. access to this program.  By using this program,
 the user acknowledges that Gaussian, Inc. is engaged in the
 business of creating and licensing software in the field of
 computational chemistry and represents and warrants to the
 licensee that it is not a competitor of Gaussian, Inc. and that
 it will not use this program in any manner prohibited above.
 ---------------------------------------------------------------
  

 Cite this work as:
 Gaussian 16, Revision C.01,
 M. J. Frisch, G. W. Trucks, H. B. Schlegel, G. E. Scuseria, 
 M. A. Robb, J. R. Cheeseman, G. Scalmani, V. Barone, 
 G. A. Petersson, H. Nakatsuji, X. Li, M. Caricato, A. V. Marenich, 
 J. Bloino, B. G. Janesko, R. Gomperts, B. Mennucci, H. P. Hratchian, 
 J. V. Ortiz, A. F. Izmaylov, J. L. Sonnenberg, D. Williams-Young, 
 F. Ding, F. Lipparini, F. Egidi, J. Goings, B. Peng, A. Petrone, 
 T. Henderson, D. Ranasinghe, V. G. Zakrzewski, J. Gao, N. Rega, 
 G. Zheng, W. Liang, M. Hada, M. Ehara, K. Toyota, R. Fukuda, 
 J. Hasegawa, M. Ishida, T. Nakajima, Y. Honda, O. Kitao, H. Nakai, 
 T. Vreven, K. Throssell, J. A. Montgomery, Jr., J. E. Peralta, 
 F. Ogliaro, M. J. Bearpark, J. J. Heyd, E. N. Brothers, K. N. Kudin, 
 V. N. Staroverov, T. A. Keith, R. Kobayashi, J. Normand, 
 K. Raghavachari, A. P. Rendell, J. C. Burant, S. S. Iyengar, 
 J. Tomasi, M. Cossi, J. M. Millam, M. Klene, C. Adamo, R. Cammi, 
 J. W. Ochterski, R. L. Martin, K. Morokuma, O. Farkas, 
 J. B. Foresman, and D. J. Fox, Gaussian, Inc., Wallingford CT, 2019.
 
 ******************************************
 Gaussian 16:  ES64L-G16RevC.01  3-Jul-2019
                 7-Dec-2024 
 ******************************************
 Default route: SCF=Direct
 ----------------------------------------------------
 # m06/genecp scf=tight int=ultrafine 5d freq=noraman
 ----------------------------------------------------
 1/10=4,30=1,38=1/1,3;
 2/12=2,17=6,18=5,40=1/2;
 3/5=7,8=1,11=2,16=1,17=8,25=1,30=1,71=2,74=-54,75=-5,140=1/1,2,3;
 4//1;
 5/5=2,32=2,38=5,98=1/2;
 8/6=4,10=90,11=11/1;
 11/6=1,8=1,9=11,15=111,16=1/1,2,10;
 10/6=1/2;
 6/7=2,8=2,9=2,10=2,28=1/1;
 7/8=1,10=1,25=1/1,2,3,16;
 1/10=4,30=1/3;
 99//99;
 ------
 OPT-TS
 ------
 Symbolic Z-matrix:
 Charge =  0 Multiplicity = 1
 C                    -1.54483   2.08689   0.97178 
 C                    -3.14335   0.61975   0.17142 
 C                    -4.16762   1.32085   0.79234 
 C                    -3.85778   2.47115   1.50856 
 C                    -2.53053   2.85434   1.60239 
 C                    -0.10816   2.37526   1.09496 
 C                     2.06116   1.64044   0.69493 
 C                     2.59258   2.68221   1.43636 
 C                     1.73956   3.63283   1.98335 
 C                     0.37811   3.47595   1.8032 
 H                    -3.33627  -0.29515  -0.38868 
 H                    -4.64007   3.04544   1.99898 
 H                    -2.26716   3.73514   2.18147 
 H                     2.69364   0.89603   0.20989 
 H                     2.13587   4.47614   2.54385 
 H                    -0.30681   4.20807   2.22196 
 N                    -1.86732   0.99507   0.24996 
 N                     0.74156   1.48614   0.52832 
 Ir                   -0.08181  -0.1183   -0.67039 
 O                     1.61608  -1.54691   1.46444 
 O                     1.62181  -2.14573  -2.19453 
 O                    -0.34954  -3.23253  -0.15081 
 B                     1.585    -1.01578  -1.39447 
 B                     0.34328  -1.10067   1.18205 
 B                    -0.94812  -1.99813  -0.35062 
 O                    -2.33307  -2.14456  -0.4263 
 O                    -0.42509  -1.02179   2.33181 
 C                     0.45444  -1.22033   3.45932 
 C                     1.63976  -2.00805   2.82593 
 C                    -1.34155  -4.24036  -0.41004 
 C                    -2.65933  -3.49424  -0.0595 
 C                     2.96812  -2.64073  -2.17091 
 C                     3.79226  -1.34234  -1.92759 
 O                     2.87098  -0.54511  -1.16473 
 C                     3.00442  -1.70076   3.40874 
 H                     3.27414  -0.64548   3.28424 
 H                     3.04453  -1.95388   4.47797 
 H                     3.76355  -2.30137   2.89006 
 C                     1.4093   -3.51164   2.79373 
 H                     0.42963  -3.74907   2.36257 
 H                     2.16842  -3.97489   2.15014 
 H                     1.48313  -3.95814   3.79442 
 C                     0.85537   0.1615    3.95881 
 H                     1.43942   0.71012   3.20679 
 H                    -0.05489   0.73746   4.17312 
 H                     1.45237   0.10408   4.87868 
 C                    -0.29807  -1.95771   4.54785 
 H                     0.36604  -2.18671   5.39366 
 H                    -1.11851  -1.33147   4.92109 
 H                    -0.73008  -2.89585   4.18219 
 C                     3.0543   -3.62693  -1.01139 
 H                     4.03114  -4.12854  -0.97116 
 H                     2.86304  -3.12221  -0.05483 
 H                     2.27152  -4.38676  -1.14081 
 C                     3.25805  -3.34526  -3.47986 
 H                     2.62581  -4.23901  -3.56344 
 H                     3.0465   -2.70228  -4.34152 
 H                     4.30863  -3.6663   -3.52867 
 C                     5.05628  -1.52719  -1.1126 
 H                     5.75567  -2.20862  -1.61812 
 H                     5.558    -0.55898  -0.98379 
 H                     4.8326   -1.92479  -0.11603 
 C                     4.09692  -0.57109  -3.20353 
 H                     4.85534  -1.07588  -3.81714 
 H                     3.19217  -0.43065  -3.80957 
 H                     4.47553   0.42275  -2.93325 
 C                    -3.8752   -3.93471  -0.8485 
 H                    -3.72835  -3.80461  -1.92623 
 H                    -4.10752  -4.9908   -0.65007 
 H                    -4.74533  -3.33482  -0.5499 
 C                    -2.97905  -3.48279   1.42914 
 H                    -2.11297  -3.15291   2.01827 
 H                    -3.78871  -2.76137   1.60269 
 H                    -3.30893  -4.46684   1.78862 
 C                    -1.04927  -5.45862   0.43994 
 H                    -1.03821  -5.22256   1.50993 
 H                    -1.80087  -6.24195   0.26631 
 H                    -0.06434  -5.86514   0.17375 
 C                    -1.22248  -4.59232  -1.88732 
 H                    -1.44025  -3.72375  -2.52282 
 H                    -0.18639  -4.89189  -2.09181 
 H                    -1.89067  -5.41668  -2.17052 
 H                    -0.71561  -1.06731  -1.8282 
 C                    -0.03521   3.68975  -1.70775 
 O                     1.15819   3.77687  -1.42955 
 C                    -0.95697   4.88308  -1.46834 
 C                     0.22118   1.32568  -2.32415 
 C                     0.11036   0.73025  -3.71926 
 H                     1.25222   1.67222  -2.186 
 N                    -0.60065   2.54144  -2.19274 
 C                    -2.01078   2.45248  -2.54794 
 C                    -2.34652   2.94704  -3.94782 
 H                    -2.29021   1.39376  -2.45106 
 H                    -2.62008   2.99236  -1.80685 
 C                    -5.56519   0.80821   0.64228 
 F                    -5.6406   -0.48758   0.96843 
 F                    -6.42562   1.47655   1.41505 
 F                    -5.98703   0.91522  -0.62243 
 C                     4.06371   2.69855   1.70713 
 F                     4.49461   3.92183   2.02673 
 F                     4.35238   1.89407   2.74422 
 F                     4.77159   2.26623   0.66554 
 C                    -0.18035   6.11591  -1.04654 
 H                    -1.69183   4.61262  -0.68974 
 H                    -1.55596   5.09824  -2.36437 
 H                     0.39474   5.92539  -0.1329 
 H                    -0.85668   6.96113  -0.86878 
 H                     0.54316   6.40475  -1.81702 
 H                    -0.89524   0.34764  -3.94625 
 H                     0.78629  -0.13012  -3.80878 
 H                     0.38081   1.46272  -4.49921 
 H                    -1.81756   2.36736  -4.71224 
 H                    -2.07116   4.0006   -4.08542 
 H                    -3.42448   2.85528  -4.13487 
 

 GradGradGradGradGradGradGradGradGradGradGradGradGradGradGradGradGradGrad
 Berny optimization.
 Initialization pass.
 Trust Radius=3.00D-01 FncErr=1.00D-07 GrdErr=1.00D-07 EigMax=2.50D+02 EigMin=1.00D-04
 Number of steps in this run=      2 maximum allowed number of steps=      2.
 GradGradGradGradGradGradGradGradGradGradGradGradGradGradGradGradGradGrad

 Stoichiometry    C37H57B3F6IrN3O7
 Framework group  C1[X(C37H57B3F6IrN3O7)]
 Deg. of freedom   336
 Full point group                 C1      NOp   1
 Largest Abelian subgroup         C1      NOp   1
 Largest concise Abelian subgroup C1      NOp   1
                         Standard orientation:                         
 ---------------------------------------------------------------------
 Center     Atomic      Atomic             Coordinates (Angstroms)
 Number     Number       Type             X           Y           Z
 ---------------------------------------------------------------------
      1          6           0       -1.544830    2.086890    0.971781
      2          6           0       -3.143350    0.619750    0.171421
      3          6           0       -4.167620    1.320850    0.792341
      4          6           0       -3.857780    2.471150    1.508561
      5          6           0       -2.530530    2.854340    1.602391
      6          6           0       -0.108160    2.375260    1.094961
      7          6           0        2.061160    1.640440    0.694931
      8          6           0        2.592580    2.682210    1.436361
      9          6           0        1.739560    3.632830    1.983351
     10          6           0        0.378110    3.475950    1.803201
     11          1           0       -3.336270   -0.295150   -0.388679
     12          1           0       -4.640070    3.045440    1.998981
     13          1           0       -2.267160    3.735140    2.181471
     14          1           0        2.693640    0.896029    0.209891
     15          1           0        2.135870    4.476140    2.543851
     16          1           0       -0.306810    4.208070    2.221961
     17          7           0       -1.867320    0.995070    0.249961
     18          7           0        0.741560    1.486140    0.528321
     19         77           0       -0.081810   -0.118300   -0.670389
     20          8           0        1.616080   -1.546910    1.464441
     21          8           0        1.621810   -2.145730   -2.194529
     22          8           0       -0.349540   -3.232530   -0.150809
     23          5           0        1.585000   -1.015780   -1.394469
     24          5           0        0.343280   -1.100670    1.182051
     25          5           0       -0.948120   -1.998130   -0.350619
     26          8           0       -2.333070   -2.144560   -0.426299
     27          8           0       -0.425090   -1.021790    2.331811
     28          6           0        0.454440   -1.220330    3.459321
     29          6           0        1.639760   -2.008050    2.825931
     30          6           0       -1.341550   -4.240360   -0.410039
     31          6           0       -2.659330   -3.494240   -0.059499
     32          6           0        2.968120   -2.640731   -2.170909
     33          6           0        3.792260   -1.342341   -1.927589
     34          8           0        2.870980   -0.545111   -1.164729
     35          6           0        3.004420   -1.700761    3.408741
     36          1           0        3.274140   -0.645481    3.284241
     37          1           0        3.044530   -1.953881    4.477971
     38          1           0        3.763550   -2.301371    2.890061
     39          6           0        1.409300   -3.511640    2.793731
     40          1           0        0.429630   -3.749070    2.362571
     41          1           0        2.168420   -3.974890    2.150141
     42          1           0        1.483130   -3.958140    3.794421
     43          6           0        0.855370    0.161500    3.958811
     44          1           0        1.439420    0.710120    3.206791
     45          1           0       -0.054890    0.737460    4.173121
     46          1           0        1.452370    0.104080    4.878681
     47          6           0       -0.298070   -1.957710    4.547851
     48          1           0        0.366040   -2.186710    5.393661
     49          1           0       -1.118510   -1.331470    4.921091
     50          1           0       -0.730080   -2.895850    4.182191
     51          6           0        3.054300   -3.626931   -1.011389
     52          1           0        4.031140   -4.128541   -0.971159
     53          1           0        2.863040   -3.122211   -0.054829
     54          1           0        2.271520   -4.386760   -1.140809
     55          6           0        3.258050   -3.345261   -3.479859
     56          1           0        2.625810   -4.239011   -3.563439
     57          1           0        3.046500   -2.702281   -4.341519
     58          1           0        4.308630   -3.666301   -3.528669
     59          6           0        5.056280   -1.527191   -1.112599
     60          1           0        5.755670   -2.208621   -1.618119
     61          1           0        5.558000   -0.558981   -0.983789
     62          1           0        4.832600   -1.924791   -0.116029
     63          6           0        4.096920   -0.571091   -3.203529
     64          1           0        4.855340   -1.075881   -3.817139
     65          1           0        3.192170   -0.430651   -3.809569
     66          1           0        4.475530    0.422749   -2.933249
     67          6           0       -3.875200   -3.934710   -0.848499
     68          1           0       -3.728350   -3.804610   -1.926229
     69          1           0       -4.107520   -4.990800   -0.650069
     70          1           0       -4.745330   -3.334820   -0.549899
     71          6           0       -2.979050   -3.482790    1.429141
     72          1           0       -2.112970   -3.152910    2.018271
     73          1           0       -3.788710   -2.761370    1.602691
     74          1           0       -3.308930   -4.466840    1.788621
     75          6           0       -1.049270   -5.458620    0.439941
     76          1           0       -1.038210   -5.222560    1.509931
     77          1           0       -1.800870   -6.241950    0.266311
     78          1           0       -0.064340   -5.865140    0.173751
     79          6           0       -1.222480   -4.592320   -1.887319
     80          1           0       -1.440250   -3.723750   -2.522819
     81          1           0       -0.186390   -4.891890   -2.091809
     82          1           0       -1.890670   -5.416680   -2.170519
     83          1           0       -0.715610   -1.067310   -1.828199
     84          6           0       -0.035210    3.689750   -1.707749
     85          8           0        1.158190    3.776870   -1.429549
     86          6           0       -0.956970    4.883080   -1.468339
     87          6           0        0.221180    1.325680   -2.324149
     88          6           0        0.110360    0.730250   -3.719259
     89          1           0        1.252220    1.672220   -2.185999
     90          7           0       -0.600650    2.541440   -2.192739
     91          6           0       -2.010780    2.452480   -2.547939
     92          6           0       -2.346520    2.947040   -3.947819
     93          1           0       -2.290210    1.393760   -2.451059
     94          1           0       -2.620080    2.992360   -1.806849
     95          6           0       -5.565190    0.808210    0.642281
     96          9           0       -5.640600   -0.487580    0.968431
     97          9           0       -6.425620    1.476550    1.415051
     98          9           0       -5.987030    0.915220   -0.622429
     99          6           0        4.063710    2.698549    1.707131
    100          9           0        4.494610    3.921829    2.026731
    101          9           0        4.352380    1.894069    2.744221
    102          9           0        4.771590    2.266229    0.665541
    103          6           0       -0.180350    6.115910   -1.046539
    104          1           0       -1.691830    4.612620   -0.689739
    105          1           0       -1.555960    5.098240   -2.364369
    106          1           0        0.394740    5.925390   -0.132899
    107          1           0       -0.856680    6.961130   -0.868779
    108          1           0        0.543160    6.404750   -1.817019
    109          1           0       -0.895240    0.347640   -3.946249
    110          1           0        0.786290   -0.130120   -3.808779
    111          1           0        0.380810    1.462720   -4.499209
    112          1           0       -1.817560    2.367360   -4.712239
    113          1           0       -2.071160    4.000600   -4.085419
    114          1           0       -3.424480    2.855280   -4.134869
 ---------------------------------------------------------------------
 Rotational constants (GHZ):           0.0537346           0.0474990           0.0382184
 General basis read from cards:  (5D, 7F)
 ======================================================================================================
                                       Pseudopotential Parameters
 ======================================================================================================
  Center     Atomic      Valence      Angular      Power
  Number     Number     Electrons     Momentum     of R      Exponent        Coefficient   SO-Coeffient
 ======================================================================================================
    1          6
                                   No pseudopotential on this center.
    2          6
                                   No pseudopotential on this center.
    3          6
                                   No pseudopotential on this center.
    4          6
                                   No pseudopotential on this center.
    5          6
                                   No pseudopotential on this center.
    6          6
                                   No pseudopotential on this center.
    7          6
                                   No pseudopotential on this center.
    8          6
                                   No pseudopotential on this center.
    9          6
                                   No pseudopotential on this center.
   10          6
                                   No pseudopotential on this center.
   11          1
                                   No pseudopotential on this center.
   12          1
                                   No pseudopotential on this center.
   13          1
                                   No pseudopotential on this center.
   14          1
                                   No pseudopotential on this center.
   15          1
                                   No pseudopotential on this center.
   16          1
                                   No pseudopotential on this center.
   17          7
                                   No pseudopotential on this center.
   18          7
                                   No pseudopotential on this center.
   19         77           17
                                      G and up 
                                                     1      823.5880147       -0.15780140    0.00000000
                                                     2      364.6613336    -1517.52704460    0.00000000
                                                     2       55.7082801     -316.53065290    0.00000000
                                                     2       12.0464544      -91.88809410    0.00000000
                                                     2        3.5120610       -9.22417730    0.00000000
                                      S - G
                                                     0      188.0490770        3.15780140    0.00000000
                                                     1      340.4194712       26.83225770    0.00000000
                                                     2      128.2373673      800.42500070    0.00000000
                                                     2       33.8644961      369.40506830    0.00000000
                                                     2        4.7560005      242.41718990    0.00000000
                                                     2        3.9649974     -118.21732820    0.00000000
                                      P - G
                                                     0      289.7291139        2.15780140    0.00000000
                                                     1       87.4633789       61.96786100    0.00000000
                                                     2       30.4363766      269.05819860    0.00000000
                                                     2        4.0553412      231.16547930    0.00000000
                                                     2        3.5525341     -133.69526670    0.00000000
                                      D - G
                                                     0      136.4017106        3.15780140    0.00000000
                                                     1       95.0776925       45.93498030    0.00000000
                                                     2       49.2258410      359.03446680    0.00000000
                                                     2       15.0874145      176.47401190    0.00000000
                                                     2        4.0405764       54.51552860    0.00000000
                                      F - G
                                                     0      127.3507908        3.95461970    0.00000000
                                                     1       66.2364374       52.97736550    0.00000000
                                                     2       34.4299229      274.86433830    0.00000000
                                                     2       10.1995721      137.20473380    0.00000000
                                                     2        2.5409702       14.86333050    0.00000000
   20          8
                                   No pseudopotential on this center.
   21          8
                                   No pseudopotential on this center.
   22          8
                                   No pseudopotential on this center.
   23          5
                                   No pseudopotential on this center.
   24          5
                                   No pseudopotential on this center.
   25          5
                                   No pseudopotential on this center.
   26          8
                                   No pseudopotential on this center.
   27          8
                                   No pseudopotential on this center.
   28          6
                                   No pseudopotential on this center.
   29          6
                                   No pseudopotential on this center.
   30          6
                                   No pseudopotential on this center.
   31          6
                                   No pseudopotential on this center.
   32          6
                                   No pseudopotential on this center.
   33          6
                                   No pseudopotential on this center.
   34          8
                                   No pseudopotential on this center.
   35          6
                                   No pseudopotential on this center.
   36          1
                                   No pseudopotential on this center.
   37          1
                                   No pseudopotential on this center.
   38          1
                                   No pseudopotential on this center.
   39          6
                                   No pseudopotential on this center.
   40          1
                                   No pseudopotential on this center.
   41          1
                                   No pseudopotential on this center.
   42          1
                                   No pseudopotential on this center.
   43          6
                                   No pseudopotential on this center.
   44          1
                                   No pseudopotential on this center.
   45          1
                                   No pseudopotential on this center.
   46          1
                                   No pseudopotential on this center.
   47          6
                                   No pseudopotential on this center.
   48          1
                                   No pseudopotential on this center.
   49          1
                                   No pseudopotential on this center.
   50          1
                                   No pseudopotential on this center.
   51          6
                                   No pseudopotential on this center.
   52          1
                                   No pseudopotential on this center.
   53          1
                                   No pseudopotential on this center.
   54          1
                                   No pseudopotential on this center.
   55          6
                                   No pseudopotential on this center.
   56          1
                                   No pseudopotential on this center.
   57          1
                                   No pseudopotential on this center.
   58          1
                                   No pseudopotential on this center.
   59          6
                                   No pseudopotential on this center.
   60          1
                                   No pseudopotential on this center.
   61          1
                                   No pseudopotential on this center.
   62          1
                                   No pseudopotential on this center.
   63          6
                                   No pseudopotential on this center.
   64          1
                                   No pseudopotential on this center.
   65          1
                                   No pseudopotential on this center.
   66          1
                                   No pseudopotential on this center.
   67          6
                                   No pseudopotential on this center.
   68          1
                                   No pseudopotential on this center.
   69          1
                                   No pseudopotential on this center.
   70          1
                                   No pseudopotential on this center.
   71          6
                                   No pseudopotential on this center.
   72          1
                                   No pseudopotential on this center.
   73          1
                                   No pseudopotential on this center.
   74          1
                                   No pseudopotential on this center.
   75          6
                                   No pseudopotential on this center.
   76          1
                                   No pseudopotential on this center.
   77          1
                                   No pseudopotential on this center.
   78          1
                                   No pseudopotential on this center.
   79          6
                                   No pseudopotential on this center.
   80          1
                                   No pseudopotential on this center.
   81          1
                                   No pseudopotential on this center.
   82          1
                                   No pseudopotential on this center.
   83          1
                                   No pseudopotential on this center.
   84          6
                                   No pseudopotential on this center.
   85          8
                                   No pseudopotential on this center.
   86          6
                                   No pseudopotential on this center.
   87          6
                                   No pseudopotential on this center.
   88          6
                                   No pseudopotential on this center.
   89          1
                                   No pseudopotential on this center.
   90          7
                                   No pseudopotential on this center.
   91          6
                                   No pseudopotential on this center.
   92          6
                                   No pseudopotential on this center.
   93          1
                                   No pseudopotential on this center.
   94          1
                                   No pseudopotential on this center.
   95          6
                                   No pseudopotential on this center.
   96          9
                                   No pseudopotential on this center.
   97          9
                                   No pseudopotential on this center.
   98          9
                                   No pseudopotential on this center.
   99          6
                                   No pseudopotential on this center.
  100          9
                                   No pseudopotential on this center.
  101          9
                                   No pseudopotential on this center.
  102          9
                                   No pseudopotential on this center.
  103          6
                                   No pseudopotential on this center.
  104          1
                                   No pseudopotential on this center.
  105          1
                                   No pseudopotential on this center.
  106          1
                                   No pseudopotential on this center.
  107          1
                                   No pseudopotential on this center.
  108          1
                                   No pseudopotential on this center.
  109          1
                                   No pseudopotential on this center.
  110          1
                                   No pseudopotential on this center.
  111          1
                                   No pseudopotential on this center.
  112          1
                                   No pseudopotential on this center.
  113          1
                                   No pseudopotential on this center.
  114          1
                                   No pseudopotential on this center.
 ======================================================================================================
 There are   978 symmetry adapted cartesian basis functions of A   symmetry.
 There are   920 symmetry adapted basis functions of A   symmetry.
   920 basis functions,  1839 primitive gaussians,   978 cartesian basis functions
   221 alpha electrons      221 beta electrons
       nuclear repulsion energy     10461.4944250340 Hartrees.
 NAtoms=  114 NActive=  114 NUniq=  114 SFac= 1.00D+00 NAtFMM=   60 NAOKFM=T Big=T
 Integral buffers will be    131072 words long.
 Raffenetti 2 integral format.
 Two-electron integral symmetry is turned on.
 One-electron integrals computed using PRISM.
   1 Symmetry operations used in ECPInt.
 ECPInt:  NShTT=   60031 NPrTT=  371420 LenC2=   45456 LenP2D=  139803.
 LDataN:  DoStor=T MaxTD1= 6 Len=  172
 NBasis=   920 RedAO= T EigKep=  4.35D-04  NBF=   920
 NBsUse=   920 1.00D-06 EigRej= -1.00D+00 NBFU=   920
 Defaulting to unpruned grid for atomic number  77.
 ExpMin= 2.90D-02 ExpMax= 7.00D+03 ExpMxC= 1.05D+03 IAcc=3 IRadAn=         5 AccDes= 0.00D+00
 Harris functional with IExCor= 1009 and IRadAn=       5 diagonalized for initial guess.
 HarFok:  IExCor= 1009 AccDes= 0.00D+00 IRadAn=         5 IDoV= 1 UseB2=F ITyADJ=14
 ICtDFT=  3500011 ScaDFX=  1.000000  1.000000  1.000000  1.000000
 Defaulting to unpruned grid for atomic number  77.
 FoFCou: FMM=F IPFlag=           0 FMFlag=      100000 FMFlg1=        2001
         NFxFlg=           0 DoJE=T BraDBF=F KetDBF=T FulRan=T
         wScrn=  0.000000 ICntrl=       500 IOpCl=  0 I1Cent=   200000004 NGrid=           0
         NMat0=    1 NMatS0=      1 NMatT0=    0 NMatD0=    1 NMtDS0=    0 NMtDT0=    0
 Petite list used in FoFCou.
 Requested convergence on RMS density matrix=1.00D-08 within 128 cycles.
 Requested convergence on MAX density matrix=1.00D-06.
 Requested convergence on             energy=1.00D-06.
 No special actions if energy rises.
 Defaulting to unpruned grid for atomic number  77.
 Defaulting to unpruned grid for atomic number  77.
 Defaulting to unpruned grid for atomic number  77.
 Defaulting to unpruned grid for atomic number  77.
 Defaulting to unpruned grid for atomic number  77.
 Defaulting to unpruned grid for atomic number  77.
 Defaulting to unpruned grid for atomic number  77.
 Defaulting to unpruned grid for atomic number  77.
 Defaulting to unpruned grid for atomic number  77.
 Defaulting to unpruned grid for atomic number  77.
 Defaulting to unpruned grid for atomic number  77.
 Defaulting to unpruned grid for atomic number  77.
 Defaulting to unpruned grid for atomic number  77.
 Defaulting to unpruned grid for atomic number  77.
 Defaulting to unpruned grid for atomic number  77.
 Defaulting to unpruned grid for atomic number  77.
 SCF Done:  E(RM06) =  -2912.12189692     A.U. after   15 cycles
            NFock= 15  Conv=0.65D-08     -V/T= 2.0313
 DoSCS=F DFT=T ScalE2(SS,OS)=  1.000000  1.000000
 Range of M.O.s used for correlation:     1   920
 NBasis=   920 NAE=   221 NBE=   221 NFC=     0 NFV=     0
 NROrb=    920 NOA=   221 NOB=   221 NVA=   699 NVB=   699

 **** Warning!!: The largest alpha MO coefficient is  0.15156361D+02


 **** Warning!!: The smallest alpha delta epsilon is  0.99565208D-01

   1 Symmetry operations used in ECPInt.
 ECPInt:  NShTT=   60031 NPrTT=  371420 LenC2=   45456 LenP2D=  139803.
 LDataN:  DoStor=T MaxTD1= 7 Len=  274
 Number of processors reduced to   7 by ecpmxn.
 Symmetrizing basis deriv contribution to polar:
 IMax=3 JMax=2 DiffMx= 0.00D+00
 G2DrvN: will do   115 centers at a time, making    1 passes.
 Calling FoFCou, ICntrl=  3107 FMM=T I1Cent=   0 AccDes= 0.00D+00.
 Defaulting to unpruned grid for atomic number  77.
 Defaulting to unpruned grid for atomic number  77.
 Defaulting to unpruned grid for atomic number  77.
 Defaulting to unpruned grid for atomic number  77.
 Defaulting to unpruned grid for atomic number  77.
 Defaulting to unpruned grid for atomic number  77.
 Defaulting to unpruned grid for atomic number  77.
 Defaulting to unpruned grid for atomic number  77.
 Defaulting to unpruned grid for atomic number  77.
 Defaulting to unpruned grid for atomic number  77.
 Defaulting to unpruned grid for atomic number  77.
 Defaulting to unpruned grid for atomic number  77.
 Defaulting to unpruned grid for atomic number  77.
 Defaulting to unpruned grid for atomic number  77.
 Defaulting to unpruned grid for atomic number  77.
 Defaulting to unpruned grid for atomic number  77.
 End of G2Drv F.D. properties file   721 does not exist.
 End of G2Drv F.D. properties file   722 does not exist.
 End of G2Drv F.D. properties file   788 does not exist.
          IDoAtm=11111111111111111111111111111111111111111111111111
          IDoAtm=11111111111111111111111111111111111111111111111111
          IDoAtm=11111111111111
          Differentiating once with respect to electric field.
                with respect to dipole field.
          Differentiating once with respect to nuclear coordinates.
 Defaulting to unpruned grid for atomic number  77.
 CalDSu exits because no D1Ps are significant.
 Defaulting to unpruned grid for atomic number  77.
 Defaulting to unpruned grid for atomic number  77.
 Defaulting to unpruned grid for atomic number  77.
 Defaulting to unpruned grid for atomic number  77.
 Defaulting to unpruned grid for atomic number  77.
 Defaulting to unpruned grid for atomic number  77.
 Defaulting to unpruned grid for atomic number  77.
 Defaulting to unpruned grid for atomic number  77.
 Defaulting to unpruned grid for atomic number  77.
 Defaulting to unpruned grid for atomic number  77.
 Defaulting to unpruned grid for atomic number  77.
 Defaulting to unpruned grid for atomic number  77.
 Defaulting to unpruned grid for atomic number  77.
 Defaulting to unpruned grid for atomic number  77.
 Defaulting to unpruned grid for atomic number  77.
 Defaulting to unpruned grid for atomic number  77.
          There are   345 degrees of freedom in the 1st order CPHF.  IDoFFX=6 NUNeed=     3.
    342 vectors produced by pass  0 Test12= 1.54D-13 1.00D-09 XBig12= 5.32D+02 9.27D+00.
 AX will form    72 AO Fock derivatives at one time.
    342 vectors produced by pass  1 Test12= 1.54D-13 1.00D-09 XBig12= 9.93D+01 1.02D+00.
    342 vectors produced by pass  2 Test12= 1.54D-13 1.00D-09 XBig12= 1.18D+00 8.58D-02.
    342 vectors produced by pass  3 Test12= 1.54D-13 1.00D-09 XBig12= 9.74D-03 5.18D-03.
    342 vectors produced by pass  4 Test12= 1.54D-13 1.00D-09 XBig12= 3.87D-05 3.03D-04.
    299 vectors produced by pass  5 Test12= 1.54D-13 1.00D-09 XBig12= 7.94D-08 1.40D-05.
     83 vectors produced by pass  6 Test12= 1.54D-13 1.00D-09 XBig12= 1.15D-10 1.05D-06.
      3 vectors produced by pass  7 Test12= 1.54D-13 1.00D-09 XBig12= 1.54D-13 4.66D-08.
      1 vectors produced by pass  8 Test12= 1.54D-13 1.00D-09 XBig12= 2.16D-16 1.74D-09.
 InvSVY:  IOpt=1 It=  1 EMax= 1.78D-14
 Solved reduced A of dimension  2096 with   345 vectors.
 Isotropic polarizability for W=    0.000000      509.26 Bohr**3.
 End of Minotr F.D. properties file   721 does not exist.
 End of Minotr F.D. properties file   722 does not exist.
 End of Minotr F.D. properties file   788 does not exist.
 Hyperfine terms turned off by default for NAtoms > 100.

 **********************************************************************

            Population analysis using the SCF Density.

 **********************************************************************

 Orbital symmetries:
       Occupied  (A) (A) (A) (A) (A) (A) (A) (A) (A) (A) (A) (A)
                 (A) (A) (A) (A) (A) (A) (A) (A) (A) (A) (A) (A)
                 (A) (A) (A) (A) (A) (A) (A) (A) (A) (A) (A) (A)
                 (A) (A) (A) (A) (A) (A) (A) (A) (A) (A) (A) (A)
                 (A) (A) (A) (A) (A) (A) (A) (A) (A) (A) (A) (A)
                 (A) (A) (A) (A) (A) (A) (A) (A) (A) (A) (A) (A)
                 (A) (A) (A) (A) (A) (A) (A) (A) (A) (A) (A) (A)
                 (A) (A) (A) (A) (A) (A) (A) (A) (A) (A) (A) (A)
                 (A) (A) (A) (A) (A) (A) (A) (A) (A) (A) (A) (A)
                 (A) (A) (A) (A) (A) (A) (A) (A) (A) (A) (A) (A)
                 (A) (A) (A) (A) (A) (A) (A) (A) (A) (A) (A) (A)
                 (A) (A) (A) (A) (A) (A) (A) (A) (A) (A) (A) (A)
                 (A) (A) (A) (A) (A) (A) (A) (A) (A) (A) (A) (A)
                 (A) (A) (A) (A) (A) (A) (A) (A) (A) (A) (A) (A)
                 (A) (A) (A) (A) (A) (A) (A) (A) (A) (A) (A) (A)
                 (A) (A) (A) (A) (A) (A) (A) (A) (A) (A) (A) (A)
                 (A) (A) (A) (A) (A) (A) (A) (A) (A) (A) (A) (A)
                 (A) (A) (A) (A) (A) (A) (A) (A) (A) (A) (A) (A)
                 (A) (A) (A) (A) (A)
       Virtual   (A) (A) (A) (A) (A) (A) (A) (A) (A) (A) (A) (A)
                 (A) (A) (A) (A) (A) (A) (A) (A) (A) (A) (A) (A)
                 (A) (A) (A) (A) (A) (A) (A) (A) (A) (A) (A) (A)
                 (A) (A) (A) (A) (A) (A) (A) (A) (A) (A) (A) (A)
                 (A) (A) (A) (A) (A) (A) (A) (A) (A) (A) (A) (A)
                 (A) (A) (A) (A) (A) (A) (A) (A) (A) (A) (A) (A)
                 (A) (A) (A) (A) (A) (A) (A) (A) (A) (A) (A) (A)
                 (A) (A) (A) (A) (A) (A) (A) (A) (A) (A) (A) (A)
                 (A) (A) (A) (A) (A) (A) (A) (A) (A) (A) (A) (A)
                 (A) (A) (A) (A) (A) (A) (A) (A) (A) (A) (A) (A)
                 (A) (A) (A) (A) (A) (A) (A) (A) (A) (A) (A) (A)
                 (A) (A) (A) (A) (A) (A) (A) (A) (A) (A) (A) (A)
                 (A) (A) (A) (A) (A) (A) (A) (A) (A) (A) (A) (A)
                 (A) (A) (A) (A) (A) (A) (A) (A) (A) (A) (A) (A)
                 (A) (A) (A) (A) (A) (A) (A) (A) (A) (A) (A) (A)
                 (A) (A) (A) (A) (A) (A) (A) (A) (A) (A) (A) (A)
                 (A) (A) (A) (A) (A) (A) (A) (A) (A) (A) (A) (A)
                 (A) (A) (A) (A) (A) (A) (A) (A) (A) (A) (A) (A)
                 (A) (A) (A) (A) (A) (A) (A) (A) (A) (A) (A) (A)
                 (A) (A) (A) (A) (A) (A) (A) (A) (A) (A) (A) (A)
                 (A) (A) (A) (A) (A) (A) (A) (A) (A) (A) (A) (A)
                 (A) (A) (A) (A) (A) (A) (A) (A) (A) (A) (A) (A)
                 (A) (A) (A) (A) (A) (A) (A) (A) (A) (A) (A) (A)
                 (A) (A) (A) (A) (A) (A) (A) (A) (A) (A) (A) (A)
                 (A) (A) (A) (A) (A) (A) (A) (A) (A) (A) (A) (A)
                 (A) (A) (A) (A) (A) (A) (A) (A) (A) (A) (A) (A)
                 (A) (A) (A) (A) (A) (A) (A) (A) (A) (A) (A) (A)
                 (A) (A) (A) (A) (A) (A) (A) (A) (A) (A) (A) (A)
                 (A) (A) (A) (A) (A) (A) (A) (A) (A) (A) (A) (A)
                 (A) (A) (A) (A) (A) (A) (A) (A) (A) (A) (A) (A)
                 (A) (A) (A) (A) (A) (A) (A) (A) (A) (A) (A) (A)
                 (A) (A) (A) (A) (A) (A) (A) (A) (A) (A) (A) (A)
                 (A) (A) (A) (A) (A) (A) (A) (A) (A) (A) (A) (A)
                 (A) (A) (A) (A) (A) (A) (A) (A) (A) (A) (A) (A)
                 (A) (A) (A) (A) (A) (A) (A) (A) (A) (A) (A) (A)
                 (A) (A) (A) (A) (A) (A) (A) (A) (A) (A) (A) (A)
                 (A) (A) (A) (A) (A) (A) (A) (A) (A) (A) (A) (A)
                 (A) (A) (A) (A) (A) (A) (A) (A) (A) (A) (A) (A)
                 (A) (A) (A) (A) (A) (A) (A) (A) (A) (A) (A) (A)
                 (A) (A) (A) (A) (A) (A) (A) (A) (A) (A) (A) (A)
                 (A) (A) (A) (A) (A) (A) (A) (A) (A) (A) (A) (A)
                 (A) (A) (A) (A) (A) (A) (A) (A) (A) (A) (A) (A)
                 (A) (A) (A) (A) (A) (A) (A) (A) (A) (A) (A) (A)
                 (A) (A) (A) (A) (A) (A) (A) (A) (A) (A) (A) (A)
                 (A) (A) (A) (A) (A) (A) (A) (A) (A) (A) (A) (A)
                 (A) (A) (A) (A) (A) (A) (A) (A) (A) (A) (A) (A)
                 (A) (A) (A) (A) (A) (A) (A) (A) (A) (A) (A) (A)
                 (A) (A) (A) (A) (A) (A) (A) (A) (A) (A) (A) (A)
                 (A) (A) (A) (A) (A) (A) (A) (A) (A) (A) (A) (A)
                 (A) (A) (A) (A) (A) (A) (A) (A) (A) (A) (A) (A)
                 (A) (A) (A) (A) (A) (A) (A) (A) (A) (A) (A) (A)
                 (A) (A) (A) (A) (A) (A) (A) (A) (A) (A) (A) (A)
                 (A) (A) (A) (A) (A) (A) (A) (A) (A) (A) (A) (A)
                 (A) (A) (A) (A) (A) (A) (A) (A) (A) (A) (A) (A)
                 (A) (A) (A) (A) (A) (A) (A) (A) (A) (A) (A) (A)
                 (A) (A) (A) (A) (A) (A) (A) (A) (A) (A) (A) (A)
                 (A) (A) (A) (A) (A) (A) (A) (A) (A) (A) (A) (A)
                 (A) (A) (A) (A) (A) (A) (A) (A) (A) (A) (A) (A)
                 (A) (A) (A)
 The electronic state is 1-A.
 Alpha  occ. eigenvalues --  -24.83757 -24.83175 -24.83004 -24.82954 -24.82651
 Alpha  occ. eigenvalues --  -24.82354 -19.22015 -19.21481 -19.21301 -19.21197
 Alpha  occ. eigenvalues --  -19.20392 -19.19746 -19.17052 -14.46939 -14.45587
 Alpha  occ. eigenvalues --  -14.40866 -10.51862 -10.51209 -10.33439 -10.33307
 Alpha  occ. eigenvalues --  -10.32822 -10.31565 -10.31100 -10.30657 -10.30529
 Alpha  occ. eigenvalues --  -10.30306 -10.30097 -10.30003 -10.29987 -10.29837
 Alpha  occ. eigenvalues --  -10.29643 -10.29330 -10.29280 -10.29177 -10.28923
 Alpha  occ. eigenvalues --  -10.27384 -10.24731 -10.23846 -10.23799 -10.23743
 Alpha  occ. eigenvalues --  -10.23411 -10.23395 -10.23341 -10.23316 -10.22873
 Alpha  occ. eigenvalues --  -10.22845 -10.22800 -10.22600 -10.22474 -10.22416
 Alpha  occ. eigenvalues --  -10.22088 -10.21466 -10.21047  -6.82758  -6.82060
 Alpha  occ. eigenvalues --   -6.79556  -3.65214  -2.08148  -2.06948  -2.05969
 Alpha  occ. eigenvalues --   -1.36206  -1.35543  -1.27747  -1.27149  -1.27075
 Alpha  occ. eigenvalues --   -1.26493  -1.07657  -1.07275  -1.06120  -1.02939
 Alpha  occ. eigenvalues --   -1.01353  -1.00702  -1.00349  -0.99187  -0.98903
 Alpha  occ. eigenvalues --   -0.92492  -0.87043  -0.86174  -0.84703  -0.81571
 Alpha  occ. eigenvalues --   -0.81074  -0.80841  -0.80063  -0.77969  -0.76002
 Alpha  occ. eigenvalues --   -0.75916  -0.75803  -0.75531  -0.74494  -0.72668
 Alpha  occ. eigenvalues --   -0.72482  -0.71403  -0.70836  -0.69986  -0.69715
 Alpha  occ. eigenvalues --   -0.69006  -0.68533  -0.68158  -0.67209  -0.66676
 Alpha  occ. eigenvalues --   -0.65646  -0.65323  -0.63443  -0.62994  -0.62307
 Alpha  occ. eigenvalues --   -0.62206  -0.62132  -0.61572  -0.61475  -0.61262
 Alpha  occ. eigenvalues --   -0.61071  -0.60534  -0.58503  -0.57183  -0.55955
 Alpha  occ. eigenvalues --   -0.55786  -0.55224  -0.54836  -0.54492  -0.54082
 Alpha  occ. eigenvalues --   -0.53229  -0.52197  -0.51787  -0.50135  -0.49860
 Alpha  occ. eigenvalues --   -0.49584  -0.49513  -0.49192  -0.49013  -0.48850
 Alpha  occ. eigenvalues --   -0.48662  -0.48360  -0.47958  -0.47714  -0.47570
 Alpha  occ. eigenvalues --   -0.47136  -0.47079  -0.46891  -0.46360  -0.46197
 Alpha  occ. eigenvalues --   -0.46042  -0.45886  -0.45840  -0.45431  -0.45204
 Alpha  occ. eigenvalues --   -0.45113  -0.45056  -0.44541  -0.44529  -0.44333
 Alpha  occ. eigenvalues --   -0.44046  -0.43759  -0.43679  -0.43459  -0.43221
 Alpha  occ. eigenvalues --   -0.43046  -0.42830  -0.42604  -0.41685  -0.40990
 Alpha  occ. eigenvalues --   -0.40896  -0.40813  -0.40675  -0.40619  -0.40385
 Alpha  occ. eigenvalues --   -0.40220  -0.40117  -0.39957  -0.39801  -0.39724
 Alpha  occ. eigenvalues --   -0.39688  -0.39553  -0.38990  -0.38929  -0.38747
 Alpha  occ. eigenvalues --   -0.38655  -0.38447  -0.38398  -0.38112  -0.37525
 Alpha  occ. eigenvalues --   -0.37381  -0.37132  -0.37079  -0.36975  -0.36693
 Alpha  occ. eigenvalues --   -0.36362  -0.36238  -0.36112  -0.35961  -0.35766
 Alpha  occ. eigenvalues --   -0.35634  -0.35619  -0.35585  -0.34795  -0.34598
 Alpha  occ. eigenvalues --   -0.34240  -0.34163  -0.34024  -0.33723  -0.33338
 Alpha  occ. eigenvalues --   -0.33187  -0.32783  -0.32623  -0.32141  -0.31861
 Alpha  occ. eigenvalues --   -0.31708  -0.31210  -0.30866  -0.30307  -0.29677
 Alpha  occ. eigenvalues --   -0.28357  -0.27936  -0.27589  -0.27138  -0.26477
 Alpha  occ. eigenvalues --   -0.26243  -0.25501  -0.24556  -0.23959  -0.23346
 Alpha  occ. eigenvalues --   -0.18738
 Alpha virt. eigenvalues --   -0.08781  -0.05152  -0.04192  -0.00718   0.01863
 Alpha virt. eigenvalues --    0.03532   0.05321   0.05657   0.05911   0.06408
 Alpha virt. eigenvalues --    0.06853   0.07993   0.08192   0.09018   0.09271
 Alpha virt. eigenvalues --    0.09848   0.10307   0.10875   0.11121   0.11350
 Alpha virt. eigenvalues --    0.11513   0.12178   0.12458   0.12505   0.12971
 Alpha virt. eigenvalues --    0.13491   0.13592   0.13766   0.14053   0.14170
 Alpha virt. eigenvalues --    0.14348   0.14566   0.14660   0.14853   0.15174
 Alpha virt. eigenvalues --    0.15330   0.15571   0.15613   0.15725   0.16024
 Alpha virt. eigenvalues --    0.16229   0.16391   0.16745   0.16865   0.17217
 Alpha virt. eigenvalues --    0.17443   0.17464   0.17579   0.17802   0.18110
 Alpha virt. eigenvalues --    0.18265   0.18512   0.18554   0.18868   0.19106
 Alpha virt. eigenvalues --    0.19183   0.19301   0.19526   0.19923   0.19957
 Alpha virt. eigenvalues --    0.20248   0.20370   0.20478   0.20646   0.20767
 Alpha virt. eigenvalues --    0.21153   0.21333   0.21519   0.21591   0.21869
 Alpha virt. eigenvalues --    0.22045   0.22205   0.22418   0.22587   0.22627
 Alpha virt. eigenvalues --    0.22874   0.23133   0.23242   0.23547   0.23619
 Alpha virt. eigenvalues --    0.23744   0.24012   0.24146   0.24455   0.24680
 Alpha virt. eigenvalues --    0.24836   0.25105   0.25415   0.25563   0.25861
 Alpha virt. eigenvalues --    0.26077   0.26195   0.26538   0.26842   0.27035
 Alpha virt. eigenvalues --    0.27180   0.27435   0.27804   0.28178   0.28333
 Alpha virt. eigenvalues --    0.28766   0.29546   0.29646   0.30302   0.30511
 Alpha virt. eigenvalues --    0.30720   0.31094   0.31533   0.32444   0.32953
 Alpha virt. eigenvalues --    0.33705   0.33810   0.34237   0.35063   0.35694
 Alpha virt. eigenvalues --    0.35866   0.36514   0.36794   0.37164   0.38197
 Alpha virt. eigenvalues --    0.38994   0.39180   0.39469   0.39832   0.41422
 Alpha virt. eigenvalues --    0.41720   0.43571   0.44710   0.45929   0.46352
 Alpha virt. eigenvalues --    0.47067   0.47427   0.47765   0.48193   0.48575
 Alpha virt. eigenvalues --    0.48652   0.49460   0.50257   0.50415   0.50620
 Alpha virt. eigenvalues --    0.51034   0.51293   0.51499   0.51726   0.51897
 Alpha virt. eigenvalues --    0.52571   0.52836   0.53231   0.53624   0.53921
 Alpha virt. eigenvalues --    0.54371   0.54802   0.54958   0.55452   0.55736
 Alpha virt. eigenvalues --    0.56063   0.56296   0.56601   0.56823   0.57208
 Alpha virt. eigenvalues --    0.57385   0.57484   0.58030   0.58131   0.58365
 Alpha virt. eigenvalues --    0.58517   0.58710   0.59351   0.59457   0.59837
 Alpha virt. eigenvalues --    0.60331   0.60440   0.60545   0.60772   0.61198
 Alpha virt. eigenvalues --    0.61440   0.61647   0.61860   0.62412   0.62541
 Alpha virt. eigenvalues --    0.63075   0.63689   0.63795   0.64093   0.64689
 Alpha virt. eigenvalues --    0.64803   0.64891   0.65057   0.65676   0.66043
 Alpha virt. eigenvalues --    0.66210   0.66746   0.67036   0.67530   0.67978
 Alpha virt. eigenvalues --    0.68313   0.68689   0.69071   0.69462   0.69577
 Alpha virt. eigenvalues --    0.69849   0.70196   0.70704   0.70802   0.71145
 Alpha virt. eigenvalues --    0.71417   0.71680   0.71871   0.72160   0.72550
 Alpha virt. eigenvalues --    0.73033   0.73086   0.73550   0.73797   0.74399
 Alpha virt. eigenvalues --    0.74442   0.74668   0.75584   0.76087   0.76625
 Alpha virt. eigenvalues --    0.76733   0.77093   0.77360   0.78221   0.78315
 Alpha virt. eigenvalues --    0.78684   0.79237   0.79302   0.80043   0.80539
 Alpha virt. eigenvalues --    0.80986   0.81155   0.81658   0.82028   0.82412
 Alpha virt. eigenvalues --    0.82652   0.82949   0.83327   0.83817   0.84080
 Alpha virt. eigenvalues --    0.84190   0.84485   0.84657   0.85209   0.85310
 Alpha virt. eigenvalues --    0.85636   0.85804   0.86151   0.86244   0.86485
 Alpha virt. eigenvalues --    0.86642   0.87205   0.87264   0.87646   0.87802
 Alpha virt. eigenvalues --    0.88143   0.88334   0.88637   0.88927   0.89096
 Alpha virt. eigenvalues --    0.89225   0.89452   0.89547   0.89897   0.89940
 Alpha virt. eigenvalues --    0.90099   0.90378   0.90726   0.90972   0.91239
 Alpha virt. eigenvalues --    0.91653   0.91774   0.91918   0.92214   0.92477
 Alpha virt. eigenvalues --    0.93030   0.93176   0.93363   0.93563   0.93998
 Alpha virt. eigenvalues --    0.94300   0.94678   0.95114   0.95234   0.95504
 Alpha virt. eigenvalues --    0.95654   0.96011   0.96554   0.96946   0.97191
 Alpha virt. eigenvalues --    0.97560   0.97933   0.98317   0.98428   0.98564
 Alpha virt. eigenvalues --    0.99601   0.99741   1.00321   1.00374   1.00605
 Alpha virt. eigenvalues --    1.01474   1.01950   1.02186   1.02464   1.03112
 Alpha virt. eigenvalues --    1.03190   1.04034   1.04478   1.05265   1.05502
 Alpha virt. eigenvalues --    1.06153   1.06535   1.07372   1.07574   1.08119
 Alpha virt. eigenvalues --    1.08486   1.08794   1.09426   1.09963   1.10375
 Alpha virt. eigenvalues --    1.10861   1.11633   1.12057   1.12542   1.13660
 Alpha virt. eigenvalues --    1.14333   1.15129   1.15235   1.15405   1.15665
 Alpha virt. eigenvalues --    1.16386   1.16799   1.16905   1.17306   1.17746
 Alpha virt. eigenvalues --    1.18252   1.18405   1.19148   1.19547   1.19702
 Alpha virt. eigenvalues --    1.20162   1.20811   1.21310   1.21708   1.21910
 Alpha virt. eigenvalues --    1.22227   1.22459   1.22770   1.23075   1.23955
 Alpha virt. eigenvalues --    1.24573   1.25218   1.25338   1.26303   1.26497
 Alpha virt. eigenvalues --    1.27145   1.27761   1.28282   1.29065   1.29701
 Alpha virt. eigenvalues --    1.30336   1.30973   1.31828   1.32354   1.32995
 Alpha virt. eigenvalues --    1.33615   1.33757   1.34261   1.34531   1.34886
 Alpha virt. eigenvalues --    1.35554   1.35580   1.35993   1.36150   1.37130
 Alpha virt. eigenvalues --    1.37761   1.37947   1.38325   1.38921   1.39271
 Alpha virt. eigenvalues --    1.39724   1.40374   1.41061   1.41365   1.41509
 Alpha virt. eigenvalues --    1.41735   1.42116   1.42551   1.42825   1.42928
 Alpha virt. eigenvalues --    1.43467   1.43780   1.44257   1.44484   1.44791
 Alpha virt. eigenvalues --    1.45385   1.45940   1.46723   1.47097   1.47681
 Alpha virt. eigenvalues --    1.47993   1.49005   1.49311   1.50263   1.50748
 Alpha virt. eigenvalues --    1.51811   1.52299   1.53101   1.53560   1.54327
 Alpha virt. eigenvalues --    1.55228   1.56017   1.57143   1.58457   1.59015
 Alpha virt. eigenvalues --    1.59464   1.60035   1.61005   1.62038   1.62982
 Alpha virt. eigenvalues --    1.63638   1.63984   1.64508   1.65166   1.65674
 Alpha virt. eigenvalues --    1.65859   1.66344   1.66855   1.67313   1.67622
 Alpha virt. eigenvalues --    1.68214   1.68548   1.69369   1.69669   1.70116
 Alpha virt. eigenvalues --    1.70592   1.71101   1.71261   1.71819   1.72593
 Alpha virt. eigenvalues --    1.73199   1.73742   1.74404   1.74957   1.75786
 Alpha virt. eigenvalues --    1.75982   1.76463   1.76741   1.77245   1.77434
 Alpha virt. eigenvalues --    1.78212   1.78714   1.79180   1.79748   1.80071
 Alpha virt. eigenvalues --    1.80767   1.80912   1.81021   1.81845   1.82010
 Alpha virt. eigenvalues --    1.82529   1.83149   1.83495   1.84418   1.84649
 Alpha virt. eigenvalues --    1.84965   1.85104   1.85193   1.85366   1.86468
 Alpha virt. eigenvalues --    1.86705   1.87177   1.87461   1.87704   1.87992
 Alpha virt. eigenvalues --    1.88273   1.88608   1.88960   1.89379   1.89517
 Alpha virt. eigenvalues --    1.90362   1.90679   1.91098   1.91253   1.91503
 Alpha virt. eigenvalues --    1.91690   1.92016   1.92405   1.92635   1.92846
 Alpha virt. eigenvalues --    1.92971   1.93290   1.93784   1.94044   1.94336
 Alpha virt. eigenvalues --    1.94900   1.95086   1.95712   1.96371   1.96508
 Alpha virt. eigenvalues --    1.96831   1.97608   1.98327   1.98680   1.99568
 Alpha virt. eigenvalues --    1.99657   1.99940   2.00701   2.01316   2.01427
 Alpha virt. eigenvalues --    2.01870   2.02147   2.02497   2.02629   2.02781
 Alpha virt. eigenvalues --    2.03071   2.03271   2.03721   2.03815   2.04345
 Alpha virt. eigenvalues --    2.04545   2.04988   2.05550   2.05825   2.06378
 Alpha virt. eigenvalues --    2.06695   2.06919   2.07369   2.07435   2.08252
 Alpha virt. eigenvalues --    2.08582   2.09167   2.09314   2.09798   2.09849
 Alpha virt. eigenvalues --    2.10145   2.10315   2.10569   2.11336   2.11628
 Alpha virt. eigenvalues --    2.11906   2.11989   2.12660   2.12853   2.12970
 Alpha virt. eigenvalues --    2.13756   2.14017   2.14338   2.14766   2.14891
 Alpha virt. eigenvalues --    2.15117   2.15882   2.16315   2.16795   2.16843
 Alpha virt. eigenvalues --    2.17409   2.17551   2.17889   2.18098   2.18352
 Alpha virt. eigenvalues --    2.18611   2.18905   2.19350   2.19723   2.20092
 Alpha virt. eigenvalues --    2.20161   2.21001   2.21308   2.21770   2.22167
 Alpha virt. eigenvalues --    2.22720   2.22858   2.23223   2.23741   2.23979
 Alpha virt. eigenvalues --    2.24469   2.24738   2.24941   2.25548   2.25849
 Alpha virt. eigenvalues --    2.25985   2.26279   2.26797   2.27317   2.27947
 Alpha virt. eigenvalues --    2.28120   2.28296   2.28988   2.29359   2.30007
 Alpha virt. eigenvalues --    2.31069   2.31760   2.32088   2.32325   2.32438
 Alpha virt. eigenvalues --    2.32984   2.33740   2.34001   2.34195   2.34839
 Alpha virt. eigenvalues --    2.35259   2.36851   2.37303   2.38227   2.38878
 Alpha virt. eigenvalues --    2.39023   2.39538   2.40213   2.42161   2.43068
 Alpha virt. eigenvalues --    2.43716   2.44517   2.44989   2.45908   2.46108
 Alpha virt. eigenvalues --    2.46807   2.47263   2.48123   2.48516   2.48835
 Alpha virt. eigenvalues --    2.49019   2.49260   2.49757   2.50262   2.51422
 Alpha virt. eigenvalues --    2.52201   2.53806   2.55210   2.57517   2.59064
 Alpha virt. eigenvalues --    2.59821   2.59935   2.61026   2.62051   2.62220
 Alpha virt. eigenvalues --    2.62706   2.63585   2.64612   2.64679   2.64970
 Alpha virt. eigenvalues --    2.65820   2.66539   2.67736   2.69090   2.69922
 Alpha virt. eigenvalues --    2.70428   2.73718   2.75234   2.75553   2.76550
 Alpha virt. eigenvalues --    2.76985   2.77633   2.77811   2.78658   2.78950
 Alpha virt. eigenvalues --    2.79157   2.79467   2.79921   2.80413   2.81175
 Alpha virt. eigenvalues --    2.81381   2.81796   2.82123   2.82477   2.84906
 Alpha virt. eigenvalues --    2.85883   2.86408   2.88041   2.90225   2.90901
 Alpha virt. eigenvalues --    2.91255   2.92198   2.92718   2.94417   2.94878
 Alpha virt. eigenvalues --    2.95821   2.97008   2.97944   3.01930   3.03159
 Alpha virt. eigenvalues --    3.04392   3.05328   3.05402   3.06837   3.07500
 Alpha virt. eigenvalues --    3.07637   3.08900   3.10481   3.11100   3.11449
 Alpha virt. eigenvalues --    3.12589   3.13270   3.14514   3.15435   3.21597
 Alpha virt. eigenvalues --    3.27722   3.32122   3.45076  15.48654
          Condensed to atoms (all electrons):
 Mulliken charges:
               1
     1  C    0.297620
     2  C    0.019375
     3  C   -0.070682
     4  C   -0.161794
     5  C   -0.194205
     6  C    0.321177
     7  C    0.036119
     8  C   -0.045728
     9  C   -0.151182
    10  C   -0.175357
    11  H    0.243731
    12  H    0.200507
    13  H    0.178950
    14  H    0.271775
    15  H    0.201611
    16  H    0.173265
    17  N   -0.469474
    18  N   -0.555875
    19  Ir  -0.194145
    20  O   -0.491779
    21  O   -0.512358
    22  O   -0.517738
    23  B    0.517589
    24  B    0.500971
    25  B    0.470052
    26  O   -0.523331
    27  O   -0.514047
    28  C    0.288219
    29  C    0.285049
    30  C    0.284820
    31  C    0.297984
    32  C    0.282259
    33  C    0.302317
    34  O   -0.535349
    35  C   -0.507041
    36  H    0.169914
    37  H    0.151348
    38  H    0.170391
    39  C   -0.492913
    40  H    0.165676
    41  H    0.171286
    42  H    0.149515
    43  C   -0.489778
    44  H    0.142810
    45  H    0.163196
    46  H    0.159910
    47  C   -0.508573
    48  H    0.154822
    49  H    0.171700
    50  H    0.169996
    51  C   -0.497271
    52  H    0.140806
    53  H    0.182643
    54  H    0.161449
    55  C   -0.509870
    56  H    0.166764
    57  H    0.170141
    58  H    0.148801
    59  C   -0.508384
    60  H    0.150031
    61  H    0.168860
    62  H    0.171267
    63  C   -0.508971
    64  H    0.151193
    65  H    0.170187
    66  H    0.178052
    67  C   -0.514150
    68  H    0.176079
    69  H    0.153639
    70  H    0.169258
    71  C   -0.507974
    72  H    0.175201
    73  H    0.169726
    74  H    0.150210
    75  C   -0.507995
    76  H    0.164106
    77  H    0.155238
    78  H    0.170990
    79  C   -0.504250
    80  H    0.186869
    81  H    0.174005
    82  H    0.149332
    83  H    0.186020
    84  C    0.575426
    85  O   -0.526904
    86  C   -0.395490
    87  C   -0.135345
    88  C   -0.485710
    89  H    0.191783
    90  N   -0.383687
    91  C   -0.167365
    92  C   -0.495298
    93  H    0.192241
    94  H    0.141401
    95  C    0.970484
    96  F   -0.309129
    97  F   -0.317652
    98  F   -0.307042
    99  C    0.965612
   100  F   -0.315310
   101  F   -0.308122
   102  F   -0.300853
   103  C   -0.473676
   104  H    0.145197
   105  H    0.167629
   106  H    0.157301
   107  H    0.149543
   108  H    0.183312
   109  H    0.156373
   110  H    0.180878
   111  H    0.148435
   112  H    0.180322
   113  H    0.163654
   114  H    0.167388
 Sum of Mulliken charges =  -0.00000
 Mulliken charges with hydrogens summed into heavy atoms:
               1
     1  C    0.297620
     2  C    0.263106
     3  C   -0.070682
     4  C    0.038712
     5  C   -0.015255
     6  C    0.321177
     7  C    0.307894
     8  C   -0.045728
     9  C    0.050430
    10  C   -0.002092
    17  N   -0.469474
    18  N   -0.555875
    19  Ir  -0.008125
    20  O   -0.491779
    21  O   -0.512358
    22  O   -0.517738
    23  B    0.517589
    24  B    0.500971
    25  B    0.470052
    26  O   -0.523331
    27  O   -0.514047
    28  C    0.288219
    29  C    0.285049
    30  C    0.284820
    31  C    0.297984
    32  C    0.282259
    33  C    0.302317
    34  O   -0.535349
    35  C   -0.015389
    39  C   -0.006437
    43  C   -0.023862
    47  C   -0.012055
    51  C   -0.012372
    55  C   -0.024163
    59  C   -0.018226
    63  C   -0.009539
    67  C   -0.015175
    71  C   -0.012836
    75  C   -0.017660
    79  C    0.005955
    84  C    0.575426
    85  O   -0.526904
    86  C   -0.082664
    87  C    0.056438
    88  C   -0.000024
    90  N   -0.383687
    91  C    0.166277
    92  C    0.016066
    95  C    0.970484
    96  F   -0.309129
    97  F   -0.317652
    98  F   -0.307042
    99  C    0.965612
   100  F   -0.315310
   101  F   -0.308122
   102  F   -0.300853
   103  C    0.016480
 APT charges:
               1
     1  C    0.236991
     2  C    0.065187
     3  C   -0.203264
     4  C    0.104327
     5  C   -0.234139
     6  C    0.166174
     7  C    0.019365
     8  C   -0.162782
     9  C    0.090305
    10  C   -0.200077
    11  H    0.141053
    12  H    0.066426
    13  H    0.047118
    14  H    0.183419
    15  H    0.068208
    16  H    0.046373
    17  N   -0.177887
    18  N   -0.042970
    19  Ir  -0.913176
    20  O   -0.897939
    21  O   -0.957507
    22  O   -1.019244
    23  B    1.280549
    24  B    1.136636
    25  B    1.353983
    26  O   -0.999863
    27  O   -0.862875
    28  C    0.434918
    29  C    0.460701
    30  C    0.505392
    31  C    0.521220
    32  C    0.477298
    33  C    0.520327
    34  O   -1.007561
    35  C    0.004853
    36  H   -0.004853
    37  H   -0.014081
    38  H    0.008754
    39  C   -0.029392
    40  H    0.023255
    41  H    0.005061
    42  H   -0.024341
    43  C   -0.031010
    44  H   -0.003213
    45  H    0.001000
    46  H   -0.008682
    47  C   -0.000715
    48  H   -0.011888
    49  H    0.000563
    50  H    0.003059
    51  C   -0.015524
    52  H   -0.032225
    53  H    0.015497
    54  H   -0.002020
    55  C   -0.002636
    56  H   -0.000170
    57  H    0.000964
    58  H   -0.017833
    59  C   -0.007812
    60  H   -0.017490
    61  H    0.004323
    62  H   -0.004572
    63  C   -0.037657
    64  H   -0.023846
    65  H    0.009505
    66  H    0.007598
    67  C   -0.011741
    68  H    0.006698
    69  H   -0.013892
    70  H   -0.000905
    71  C   -0.044339
    72  H    0.019069
    73  H    0.001593
    74  H   -0.018351
    75  C   -0.011755
    76  H    0.001656
    77  H   -0.015816
    78  H    0.003395
    79  C   -0.030364
    80  H    0.010519
    81  H   -0.004304
    82  H   -0.026808
    83  H   -0.009667
    84  C    0.754557
    85  O   -0.672946
    86  C    0.034590
    87  C    0.415791
    88  C    0.028826
    89  H   -0.016888
    90  N   -0.755484
    91  C    0.291478
    92  C    0.023087
    93  H   -0.002402
    94  H   -0.036903
    95  C    1.807393
    96  F   -0.556157
    97  F   -0.589965
    98  F   -0.567397
    99  C    1.776434
   100  F   -0.587776
   101  F   -0.581568
   102  F   -0.516946
   103  C    0.071524
   104  H   -0.035251
   105  H   -0.025264
   106  H    0.000936
   107  H   -0.033456
   108  H    0.005771
   109  H   -0.016337
   110  H   -0.002599
   111  H   -0.085139
   112  H    0.014404
   113  H   -0.012772
   114  H   -0.025688
 Sum of APT charges =  -0.00000
 APT charges with hydrogens summed into heavy atoms:
               1
     1  C    0.236991
     2  C    0.206240
     3  C   -0.203264
     4  C    0.170753
     5  C   -0.187020
     6  C    0.166174
     7  C    0.202784
     8  C   -0.162782
     9  C    0.158513
    10  C   -0.153705
    17  N   -0.177887
    18  N   -0.042970
    19  Ir  -0.922843
    20  O   -0.897939
    21  O   -0.957507
    22  O   -1.019244
    23  B    1.280549
    24  B    1.136636
    25  B    1.353983
    26  O   -0.999863
    27  O   -0.862875
    28  C    0.434918
    29  C    0.460701
    30  C    0.505392
    31  C    0.521220
    32  C    0.477298
    33  C    0.520327
    34  O   -1.007561
    35  C   -0.005328
    39  C   -0.025417
    43  C   -0.041904
    47  C   -0.008981
    51  C   -0.034272
    55  C   -0.019676
    59  C   -0.025551
    63  C   -0.044399
    67  C   -0.019840
    71  C   -0.042028
    75  C   -0.022520
    79  C   -0.050957
    84  C    0.754557
    85  O   -0.672946
    86  C   -0.025925
    87  C    0.398904
    88  C   -0.075248
    90  N   -0.755484
    91  C    0.252173
    92  C   -0.000969
    95  C    1.807393
    96  F   -0.556157
    97  F   -0.589965
    98  F   -0.567397
    99  C    1.776434
   100  F   -0.587776
   101  F   -0.581568
   102  F   -0.516946
   103  C    0.044775
 Electronic spatial extent (au):  <R**2>=          32763.8644
 Charge=             -0.0000 electrons
 Dipole moment (field-independent basis, Debye):
    X=             -2.8446    Y=              0.7666    Z=              4.3305  Tot=              5.2376
 Quadrupole moment (field-independent basis, Debye-Ang):
   XX=           -355.7118   YY=           -329.5802   ZZ=           -340.0317
   XY=            -16.4318   XZ=             -0.3578   YZ=             10.8972
 Traceless Quadrupole moment (field-independent basis, Debye-Ang):
   XX=            -13.9372   YY=             12.1944   ZZ=              1.7428
   XY=            -16.4318   XZ=             -0.3578   YZ=             10.8972
 Octapole moment (field-independent basis, Debye-Ang**2):
  XXX=             22.1184  YYY=             12.3048  ZZZ=              1.1209  XYY=            -88.0241
  XXY=            -25.2316  XXZ=            -36.5990  XZZ=             -6.8336  YZZ=             21.4052
  YYZ=             42.0411  XYZ=             -0.8491
 Hexadecapole moment (field-independent basis, Debye-Ang**3):
 XXXX=         -16695.8113 YYYY=         -15589.2375 ZZZZ=          -9164.8556 XXXY=            -29.6116
 XXXZ=            -93.3009 YYYX=            100.5572 YYYZ=            322.0784 ZZZX=            116.4052
 ZZZY=             44.8523 XXYY=          -5233.2770 XXZZ=          -4205.4862 YYZZ=          -4068.2772
 XXYZ=            110.6626 YYXZ=             36.0402 ZZXY=            -53.9784
 N-N= 1.046149442503D+04 E-N=-2.771074131328D+04  KE= 2.823606572050D+03
  Exact polarizability:     540.925      -2.907     534.652      -5.346      31.483     452.212
 Approx polarizability:     822.542      14.939     755.974      -4.866      82.550     674.643
   1 Symmetry operations used in ECPInt.
 ECPInt:  NShTT=   60031 NPrTT=  371420 LenC2=   45456 LenP2D=  139803.
 LDataN:  DoStor=T MaxTD1= 8 Len=  415
 Calling FoFJK, ICntrl=    100127 FMM=F ISym2X=0 I1Cent= 0 IOpClX= 0 NMat=1 NMatS=1 NMatT=0.
 Defaulting to unpruned grid for atomic number  77.
 Defaulting to unpruned grid for atomic number  77.
 Defaulting to unpruned grid for atomic number  77.
 Defaulting to unpruned grid for atomic number  77.
 Defaulting to unpruned grid for atomic number  77.
 Defaulting to unpruned grid for atomic number  77.
 Defaulting to unpruned grid for atomic number  77.
 Defaulting to unpruned grid for atomic number  77.
 Defaulting to unpruned grid for atomic number  77.
 Defaulting to unpruned grid for atomic number  77.
 Defaulting to unpruned grid for atomic number  77.
 Defaulting to unpruned grid for atomic number  77.
 Defaulting to unpruned grid for atomic number  77.
 Defaulting to unpruned grid for atomic number  77.
 Defaulting to unpruned grid for atomic number  77.
 Defaulting to unpruned grid for atomic number  77.
 Full mass-weighted force constant matrix:
 Low frequencies ---   -7.4005   -2.7726    0.0003    0.0005    0.0006    5.1182
 Low frequencies ---   16.3507   23.2601   26.4985
 Diagonal vibrational polarizability:
       69.7110669      93.0570697     103.2306560
 Harmonic frequencies (cm**-1), IR intensities (KM/Mole), Raman scattering
 activities (A**4/AMU), depolarization ratios for plane and unpolarized
 incident light, reduced masses (AMU), force constants (mDyne/A),
 and normal coordinates:
                      1                      2                      3
                      A                      A                      A
 Frequencies --     16.1266                23.2329                26.4248
 Red. masses --     13.1053                 6.9697                 5.7469
 Frc consts  --      0.0020                 0.0022                 0.0024
 IR Inten    --      0.0284                 0.1092                 0.2248
  Atom AN      X      Y      Z        X      Y      Z        X      Y      Z
     1   6     0.00  -0.00   0.02     0.03   0.02  -0.01    -0.02  -0.01  -0.01
     2   6     0.00   0.00   0.00     0.02   0.01   0.04    -0.02  -0.02  -0.00
     3   6    -0.00   0.00   0.00     0.03  -0.00   0.07    -0.02  -0.04   0.02
     4   6    -0.00  -0.00   0.01     0.04  -0.00   0.07    -0.02  -0.04   0.02
     5   6    -0.00  -0.01   0.02     0.04   0.01   0.03    -0.02  -0.02   0.00
     6   6    -0.00   0.00   0.02     0.03   0.02  -0.03    -0.02   0.00  -0.01
     7   6    -0.00   0.02   0.00     0.02  -0.01  -0.01    -0.02   0.01  -0.02
     8   6     0.00   0.04  -0.02     0.03  -0.00  -0.03    -0.03   0.01  -0.01
     9   6     0.00   0.03  -0.01     0.04   0.03  -0.06    -0.03   0.01  -0.01
    10   6    -0.00   0.01   0.01     0.04   0.04  -0.07    -0.03   0.00  -0.01
    11   1     0.00   0.01  -0.00     0.00   0.01   0.04    -0.01  -0.02  -0.00
    12   1    -0.00  -0.00   0.01     0.06  -0.01   0.10    -0.02  -0.05   0.04
    13   1    -0.00  -0.01   0.03     0.06   0.00   0.03    -0.03  -0.02   0.01
    14   1     0.01   0.03   0.00     0.02  -0.03   0.01    -0.02   0.02  -0.02
    15   1    -0.00   0.03  -0.02     0.05   0.04  -0.08    -0.03   0.01  -0.01
    16   1    -0.01   0.00   0.02     0.05   0.06  -0.09    -0.03  -0.00  -0.01
    17   7     0.00   0.00   0.01     0.02   0.02  -0.00    -0.02  -0.00  -0.01
    18   7     0.00   0.00   0.02     0.02   0.00  -0.02    -0.02   0.00  -0.01
    19  77     0.01  -0.00   0.02     0.01   0.01  -0.02    -0.02  -0.00  -0.01
    20   8    -0.02  -0.05   0.01    -0.04   0.00   0.02    -0.03   0.02   0.02
    21   8     0.02   0.00   0.03     0.03   0.00  -0.00    -0.01  -0.00   0.00
    22   8    -0.01  -0.00  -0.00     0.00   0.01  -0.04     0.01  -0.00   0.00
    23   5     0.01  -0.00   0.03     0.02  -0.00   0.00    -0.01  -0.00   0.00
    24   5    -0.01  -0.01   0.02    -0.03   0.01  -0.01    -0.03   0.01   0.00
    25   5    -0.00   0.00   0.00     0.00   0.01  -0.03    -0.01  -0.01  -0.00
    26   8    -0.00   0.01  -0.02     0.00   0.01  -0.04    -0.00  -0.03  -0.00
    27   8    -0.00   0.02   0.02    -0.05   0.02  -0.02    -0.04   0.01  -0.00
    28   6     0.00  -0.00   0.02    -0.07   0.03  -0.01    -0.04   0.03   0.01
    29   6    -0.03  -0.05   0.01    -0.07   0.02   0.03    -0.04   0.03   0.02
    30   6    -0.02   0.00  -0.02     0.01   0.01  -0.06     0.02  -0.02  -0.00
    31   6    -0.02   0.01  -0.03     0.01  -0.00  -0.06     0.01  -0.03  -0.01
    32   6     0.02  -0.00   0.04     0.02  -0.01   0.03    -0.00   0.01   0.00
    33   6     0.02  -0.01   0.07     0.03  -0.02   0.06    -0.01   0.01  -0.01
    34   8     0.01  -0.01   0.06     0.01  -0.01   0.03    -0.01   0.00   0.01
    35   6    -0.02  -0.10   0.01    -0.08   0.02   0.05    -0.04   0.04   0.03
    36   1     0.03  -0.12  -0.01    -0.07   0.01   0.04    -0.05   0.04   0.02
    37   1    -0.03  -0.09   0.01    -0.10   0.03   0.05    -0.05   0.05   0.03
    38   1    -0.05  -0.14   0.01    -0.07   0.00   0.07    -0.03   0.04   0.04
    39   6    -0.10  -0.04   0.02    -0.08   0.02   0.04    -0.03   0.03   0.03
    40   1    -0.11  -0.00   0.05    -0.07   0.02   0.03    -0.03   0.02   0.03
    41   1    -0.13  -0.07   0.00    -0.07   0.01   0.05    -0.02   0.03   0.03
    42   1    -0.09  -0.04   0.02    -0.09   0.03   0.04    -0.02   0.03   0.03
    43   6     0.06  -0.01  -0.00    -0.08   0.04  -0.02    -0.05   0.03  -0.01
    44   1     0.07  -0.04  -0.02    -0.06   0.02  -0.02    -0.05   0.03  -0.01
    45   1     0.08   0.03   0.00    -0.08   0.04  -0.05    -0.06   0.03  -0.02
    46   1     0.06  -0.02  -0.01    -0.10   0.05  -0.01    -0.06   0.05   0.00
    47   6    -0.01   0.04   0.03    -0.10   0.05  -0.01    -0.05   0.03   0.01
    48   1    -0.01   0.02   0.03    -0.11   0.06   0.01    -0.05   0.05   0.01
    49   1     0.02   0.08   0.04    -0.10   0.06  -0.03    -0.05   0.03  -0.00
    50   1    -0.06   0.05   0.05    -0.09   0.05  -0.00    -0.04   0.03   0.01
    51   6    -0.00  -0.02   0.03    -0.02  -0.02   0.03     0.01   0.01   0.01
    52   1    -0.01  -0.02   0.04    -0.02  -0.03   0.05     0.01   0.02   0.00
    53   1    -0.02  -0.03   0.03    -0.03  -0.02   0.03     0.01   0.02   0.00
    54   1    -0.00  -0.01   0.01    -0.02  -0.01   0.01     0.01   0.01   0.01
    55   6     0.04   0.01   0.04     0.05  -0.01   0.04     0.00   0.00   0.00
    56   1     0.03   0.02   0.02     0.04  -0.01   0.02     0.01  -0.00   0.01
    57   1     0.05   0.02   0.04     0.08  -0.01   0.03    -0.01  -0.00   0.00
    58   1     0.03   0.01   0.05     0.04  -0.03   0.07     0.00   0.01   0.00
    59   6     0.01  -0.02   0.09     0.00  -0.04   0.10    -0.00   0.03  -0.02
    60   1     0.01  -0.02   0.10     0.01  -0.05   0.12    -0.00   0.04  -0.03
    61   1     0.01  -0.03   0.11     0.01  -0.05   0.12    -0.01   0.03  -0.03
    62   1    -0.02  -0.03   0.08    -0.04  -0.04   0.09     0.02   0.02  -0.02
    63   6     0.05   0.00   0.08     0.08  -0.03   0.07    -0.04   0.02  -0.01
    64   1     0.06   0.01   0.09     0.09  -0.04   0.09    -0.04   0.03  -0.02
    65   1     0.06   0.01   0.07     0.10  -0.01   0.04    -0.05   0.01   0.00
    66   1     0.05  -0.00   0.10     0.08  -0.03   0.08    -0.05   0.03  -0.01
    67   6    -0.01   0.02  -0.05     0.01   0.00  -0.08     0.02  -0.05  -0.01
    68   1     0.01   0.03  -0.05     0.02   0.02  -0.08     0.03  -0.04  -0.01
    69   1    -0.02   0.02  -0.06     0.02  -0.00  -0.10     0.04  -0.06  -0.02
    70   1    -0.01   0.02  -0.05     0.01  -0.01  -0.08     0.01  -0.07  -0.01
    71   6    -0.03  -0.00  -0.03    -0.01  -0.03  -0.07     0.01  -0.04  -0.01
    72   1    -0.04  -0.00  -0.02    -0.01  -0.03  -0.05    -0.00  -0.03  -0.00
    73   1    -0.03  -0.00  -0.04    -0.02  -0.04  -0.06    -0.01  -0.06  -0.01
    74   1    -0.04  -0.00  -0.04     0.00  -0.04  -0.08     0.02  -0.05  -0.01
    75   6    -0.03  -0.01  -0.03     0.01  -0.00  -0.08     0.04  -0.01   0.00
    76   1    -0.04  -0.02  -0.03     0.00  -0.02  -0.07     0.03  -0.01   0.00
    77   1    -0.04   0.00  -0.05     0.02  -0.01  -0.09     0.05  -0.02  -0.00
    78   1    -0.03  -0.01  -0.02     0.02   0.01  -0.08     0.05   0.00   0.01
    79   6    -0.00   0.02  -0.02     0.02   0.03  -0.07     0.03  -0.02   0.00
    80   1     0.01   0.02  -0.02     0.03   0.03  -0.06     0.03  -0.02  -0.00
    81   1     0.00   0.01  -0.01     0.02   0.02  -0.06     0.04  -0.01   0.00
    82   1    -0.00   0.02  -0.04     0.02   0.03  -0.08     0.04  -0.02   0.00
    83   1     0.02  -0.00   0.01     0.01   0.01  -0.03    -0.02  -0.01  -0.00
    84   6    -0.03  -0.00   0.01    -0.07   0.01  -0.03     0.14  -0.01  -0.01
    85   8    -0.03   0.02   0.02    -0.08   0.05  -0.01     0.15  -0.07  -0.04
    86   6    -0.05  -0.02  -0.00    -0.12  -0.02  -0.04     0.21   0.04   0.01
    87   6     0.01  -0.00   0.02     0.02   0.01  -0.01     0.00  -0.02  -0.01
    88   6     0.04  -0.00   0.02     0.06   0.01  -0.01    -0.06  -0.02  -0.01
    89   1     0.01   0.01   0.03     0.00   0.04   0.01     0.02  -0.06  -0.04
    90   7    -0.00  -0.01   0.01    -0.03  -0.01  -0.03     0.07   0.02   0.01
    91   6     0.00  -0.03  -0.01    -0.02  -0.07  -0.04     0.05   0.09   0.04
    92   6     0.01  -0.04  -0.01    -0.03  -0.09  -0.04     0.05   0.11   0.04
    93   1     0.02  -0.04  -0.01     0.02  -0.08  -0.03     0.00   0.11   0.04
    94   1    -0.02  -0.04  -0.01    -0.04  -0.09  -0.04     0.10   0.13   0.05
    95   6    -0.00   0.01  -0.02     0.03  -0.00   0.11    -0.01  -0.05   0.04
    96   9    -0.01   0.01  -0.03     0.06  -0.04  -0.05     0.03  -0.09  -0.08
    97   9    -0.01   0.01  -0.02     0.08  -0.11   0.26     0.01  -0.14   0.15
    98   9     0.01   0.03  -0.02    -0.07   0.16   0.16    -0.08   0.06   0.07
    99   6     0.02   0.04  -0.11     0.03  -0.03  -0.00    -0.02   0.03  -0.03
   100   9    -0.03  -0.03   0.25     0.05  -0.03  -0.03    -0.04   0.02  -0.00
[...]
 ,0.00002019,-0.00004171,-0.00002878,-0.00008085,0.00003947,0.00003743,
 -0.00001930,0.00000670,-0.00002071,-0.00001533,0.00000965,0.00002889,-
 0.00000954,0.00002866,-0.00000230,0.00006191,-0.00002612,-0.00007870,0
 .00002600,-0.00001951,0.00007696,0.00002528,-0.00006475,0.00002746,-0.
 00000596,0.00003435,-0.00001399,-0.00001104,0.00000082,-0.00002190,0.0
 0000981,0.00000283,0.00001339,0.00000048,-0.00000082,0.00000933,-0.000
 00448,-0.00000932,-0.00000702,-0.00001310,-0.00002944,0.00000707,0.000
 00077,0.00000038,0.00000056,0.00000202,-0.00000359,-0.00000568,-0.0000
 3829,0.00000129,0.00001424,0.00000027,0.00000244,-0.00000061,-0.000000
 26,-0.00000096,0.00000013,-0.00000072,-0.00000014,-0.00000045,-0.00000
 041,-0.00000006,0.,0.00000017,0.00000007,-0.00000224,-0.00000043,-0.00
 000089,0.00000045,0.00000007,-0.00000012,0.00000028,-0.00000011,0.0000
 0080,-0.00000055,0.00000082,-0.00000089,-0.00000346,-0.00000063,0.0000
 0121,0.00000071,0.00000129,0.00000036,0.00000093,-0.00000124,-0.000000
 53,-0.00000067,-0.00000105,-0.00000124,-0.00000230,-0.00000040,0.00000
 061,-0.00000094,0.00000061,0.00000034,0.00000066,-0.00000023,-0.000001
 24,0.00000054,0.00000020,-0.00000013,0.00000008,-0.00000037,0.00000002
 ,0.00000042,0.00000186,-0.00000026,0.00000034,0.00000034,-0.00000101,-
 0.00000079,-0.00000138,0.00000137,-0.00000238,-0.00000012,0.00000046,-
 0.00000044,-0.00000209,-0.00000016,0.00000166,0.00000048,0.00000009,0.
 00000170,-0.00000093,0.00000154,0.00000246,-0.00000103,-0.00000031,-0.
 00000070,-0.00000112,-0.00000041,0.00000032,0.00000084,-0.00000004,0.0
 0000063,-0.00000498,0.00000410,-0.00000398,0.00000144,-0.00000217,0.00
 000221,-0.00000292,0.00000022,0.00000233,0.00000021,-0.00000045,0.0000
 0196,0.00000299,0.00000263,-0.00000268,-0.00000079,-0.00000138,-0.0000
 0046,0.00000055,0.00000237,0.00000005,-0.00000210,-0.00000139,0.000000
 87,0.00000292,0.00000354,-0.00000071,0.00000011,-0.00000048,0.00000108
 ,-0.00000177,-0.00000071,0.00000138,0.00000042,0.00000205,-0.00000186,
 -0.00000166,0.00000147,0.00000305,0.00000053,-0.00000059,0.00000047,0.
 00000046,0.00000077,-0.00000051,-0.00000114,0.00000108,-0.00000047,-0.
 00000039,0.00000306,0.00000172,0.00000158,-0.00000215,-0.00000354,-0.0
 0000142,0.00000081,-0.00000021,0.00000043,0.00000142,0.00000056,0.0000
 0430,-0.00001332,-0.00004859,-0.00087452,0.00121072,0.00050874,0.00027
 700,-0.00041402,-0.00031214,-0.00036769,-0.00010208,-0.00132218,-0.000
 16607,0.00002676,0.00000205,-0.00001975,-0.00026058,0.00006234,-0.0000
 6414,0.00002878,0.00009667,0.00132268,-0.00164481,0.00192321,0.0091039
 0,0.03204540,-0.00381712,0.00737838,0.02844483,-0.04959458,-0.00153758
 ,0.00138679,-0.00560131,0.00019660,-0.00060695,0.00151078,-0.00007638,
 0.00000200,0.00001461,0.00001333,0.00000708,-0.00000287,0.00003139,-0.
 00001201,-0.00001334,0.00002086,-0.00000160,-0.00000489,-0.00001446,0.
 00003106,-0.00001625,0.00000038,-0.00001370,0.00000069,0.00000602,-0.0
 0001129,0.00001132,0.00000626,-0.00000672,-0.00000018,0.00009958,-0.00
 028979,0.00035134,0.00000309,-0.00004676,0.00009593,-0.00032015,-0.001
 81018,-0.00128337,0.00012702,0.00014274,0.00008803,-0.00002116,0.00002
 100,-0.00001156,0.00001200,0.00001753,-0.00002562,0.00012176,0.0001402
 3,-0.00012280,0.00007379,-0.00001733,0.00003756,-0.00008659,-0.0000029
 4,0.00001045,-0.00727026,-0.02088020,0.00287895,-0.00706134,-0.0318753
 3,0.05521631,-0.00024243,-0.00004184,0.00005098,-0.00000034,-0.0000701
 2,-0.00003737,0.00007866,0.00010877,0.00008036,-0.00010362,-0.00011236
 ,-0.00005606,0.00016322,-0.00001604,-0.00003250,0.00015136,0.00000402,
 0.00008274,-0.00002891,-0.00005077,-0.00001398,-0.00004652,0.00007960,
 0.00001827,0.00008215,-0.00003292,-0.00000375,-0.00007002,-0.00002787,
 -0.00002221,-0.00001378,0.00002084,-0.00001992,-0.00000171,-0.00000363
 ,-0.00001104,-0.00000468,0.00000171,0.00000658,0.00000853,-0.00001721,
 -0.00000266,0.00000240,-0.00000280,0.00000468,-0.00000108,-0.00000452,
 0.00000427,0.00000652,0.00011600,0.00006153,-0.00000119,0.00008295,0.0
 0010442,0.00003077,0.00004568,-0.00024975,-0.00002308,0.00004225,-0.00
 006342,-0.00005227,0.00008979,0.00001437,0.00006006,0.00013159,0.00000
 697,0.00006840,-0.00012337,0.00002219,0.00000343,-0.00004478,0.0000691
 5,-0.00014416,-0.00019422,0.00000395,0.00014298,0.00010770,0.00001511,
 -0.00000005,0.00003017,-0.00007395,0.00000775,-0.00001490,0.00001469,0
 .00000093,-0.00001926,0.00003050,-0.00004886,-0.00003977,-0.00001048,-
 0.00003095,-0.00005570,0.00000551,0.00004241,-0.00003178,-0.00000520,0
 .00003048,-0.00003242,-0.00001481,-0.00005616,0.00005952,0.00001336,-0
 .00000100,-0.00000139,-0.00000267,0.00000231,0.00000244,0.00000185,-0.
 00000035,0.00000108,-0.00000507,-0.00000105,0.00000019,0.00000267,-0.0
 0000102,0.00000354,-0.00000367,0.00000036,-0.00000247,0.00000133,-0.00
 000079,-0.00000065,0.00000220,-0.00000002,0.00000368,-0.00000490,-0.00
 000623,0.00000210,0.00000052,0.00000592,-0.00000139,0.00000053,-0.0000
 0112,-0.00000103,0.00000433,-0.00000265,0.00000149,-0.00000487,-0.0000
 0082,0.00000111,-0.00000048,-0.00000123,0.00000147,-0.00000352,0.00000
 132,-0.00000262,0.00000003,0.00000117,0.00000414,0.00000089,-0.0000070
 9,0.00000331,-0.00000007,-0.00000558,0.00000446,-0.00000283,0.00000094
 ,-0.00000289,0.00000259,0.00000386,0.00000316,0.00000047,-0.00000209,0
 .00000118,0.00000305,0.00000346,0.00000632,-0.00000081,0.00000126,-0.0
 0000571,-0.00000394,-0.00000440,0.00000184,0.00000094,-0.00000219,0.00
 000193,-0.00000201,-0.00000481,0.00000403,0.00000284,0.00000374,-0.000
 00094,-0.00000087,-0.00000012,-0.00000040,-0.00000323,0.00000556,0.000
 00112,0.00001116,-0.00001063,0.00000719,0.00000096,0.00000386,-0.00000
 889,-0.00001169,0.00000834,0.00000145,-0.00000021,0.00000462,0.0000051
 7,-0.00000814,-0.00000913,0.00000658,0.00000712,0.00000508,0.00000221,
 0.00000446,0.00000657,-0.00000369,-0.00000905,0.00000561,0.00001065,0.
 00000029,0.00000140,-0.00000412,0.00000674,-0.00000139,-0.00000534,-0.
 00000117,0.00000121,0.00000569,-0.00000420,0.00000410,0.00000515,0.000
 00347,-0.00000203,-0.00000223,0.00000189,0.00000353,0.00000691,-0.0000
 0073,-0.00000089,-0.00000260,-0.00000131,0.00000422,0.00000959,0.00000
 308,-0.00000951,-0.00000514,-0.00000430,0.00000324,-0.00000624,0.00000
 017,0.00000495,0.00001033,0.00000259,-0.00000174,-0.00000018,0.0000624
 9,0.00087122,0.00135742,0.00035127,-0.00071051,-0.00026282,-0.00014328
 ,0.00001409,0.00000486,0.00005960,0.00032338,-0.00068557,0.00005854,-0
 .00019338,0.00018590,0.00023865,-0.00001110,0.00001243,-0.00005189,-0.
 00017918,0.00010076,-0.00271528,-0.00536414,-0.00111128,0.00180763,-0.
 30400966,-0.02268884,-0.04260021,0.00004518,0.00027939,-0.00012700,0.0
 0017179,-0.00005574,-0.00036616,-0.00029817,-0.00002113,-0.00030048,0.
 00006642,0.00000944,0.00004912,0.00005951,0.00000542,0.00004049,0.0001
 2317,0.00000319,0.00020716,0.00013894,-0.00000903,0.00007448,-0.000035
 03,-0.00001762,-0.00001936,-0.00004671,0.00002397,-0.00004453,-0.00003
 561,0.00000798,-0.00000673,0.00001863,0.00001890,-0.00002278,0.0000191
 6,-0.00002128,-0.00006229,-0.00008972,0.00003226,0.00004628,-0.0000145
 7,0.00000157,0.00000101,0.00001255,-0.00004440,-0.00001707,-0.00000341
 ,0.00002029,0.00000088,-0.00013273,-0.00006817,0.00003900,-0.00005035,
 0.00003668,-0.00012257,0.00016970,0.00013540,-0.00017818,-0.01268894,-
 0.00267327,-0.00362244,-0.00602425,0.00079189,-0.00073018,0.32783472,0
 .00006347,0.00003360,-0.00001138,-0.00001436,0.00004616,0.00003459,-0.
 00001199,-0.00002895,-0.00001682,0.00001767,0.00002680,0.00001774,-0.0
 0003879,-0.00000417,0.00000967,-0.00003532,-0.00001543,-0.00002744,-0.
 00000219,0.00000931,-0.00000484,0.00001286,-0.00001127,0.00000156,-0.0
 0001378,0.00000290,-0.00000221,0.00001147,0.00001176,0.00000209,0.0000
 0728,-0.00001930,0.00002162,0.00000177,0.00000133,-0.00000769,-0.00000
 271,-0.00000225,-0.00000063,-0.00000010,0.00000214,0.00000159,0.000000
 10,0.00000023,0.00000091,-0.00000126,-0.00000024,0.00000453,-0.0000167
 9,-0.00002751,-0.00006011,0.00001594,-0.00001811,-0.00001569,-0.000059
 81,0.00003542,0.00006004,-0.00000597,-0.00000190,-0.00000202,-0.000000
 30,-0.00001521,0.00001200,-0.00002545,-0.00001380,-0.00000542,0.000015
 39,0.00000927,-0.00002877,0.00001598,0.00000522,0.00000811,0.00006470,
 0.00002823,0.00000547,-0.00004710,-0.00001206,-0.00002416,-0.00000669,
 -0.00000381,-0.00000824,0.00000436,0.00000228,0.00000520,0.00000097,0.
 00000159,0.00000150,0.00001177,0.00000524,0.00000465,0.00000782,0.0000
 0077,0.00000966,-0.00000676,0.00000598,0.00000118,-0.00000113,0.000004
 43,-0.00000158,-0.00000655,-0.00000766,0.00000478,-0.00000007,0.000000
 12,0.00000020,-0.00000047,-0.00000065,-0.00000054,-0.00000006,0.000000
 09,-0.00000008,-0.00000006,0.00000016,-0.00000016,0.00000088,-0.000000
 55,-0.00000034,-0.00000029,0.00000009,0.00000058,0.00000030,-0.0000000
 1,0.00000004,-0.00000028,-0.00000005,-0.00000039,0.00000014,-0.0000002
 4,-0.00000117,-0.00000048,0.00000042,0.00000006,0.00000066,0.00000004,
 -0.00000006,-0.00000046,-0.00000042,-0.00000034,-0.00000042,0.00000075
 ,-0.00000074,-0.00000050,0.00000002,-0.00000051,0.00000040,0.00000015,
 0.00000032,-0.00000002,-0.00000125,0.00000044,0.00000292,0.00000019,-0
 .00000019,-0.00000013,-0.00000085,0.00000091,0.00000038,0.00000025,-0.
 00000030,-0.00000035,-0.00000165,-0.00000030,0.00000058,0.00000127,-0.
 00000107,-0.00000003,-0.00000221,0.00000042,-0.00000059,0.00000216,0.0
 0000120,-0.00000015,-0.00000056,-0.00000006,-0.00000091,-0.00000049,0.
 00000120,0.00000040,-0.00000015,-0.00000020,-0.00000058,-0.00000035,-0
 .00000002,0.00000047,0.00000012,0.00000110,-0.00000448,-0.00000008,-0.
 00000569,0.00000293,-0.00000129,0.00000137,-0.00000424,0.00000172,0.00
 000370,0.00000005,-0.00000046,0.00000145,-0.00000168,0.00000125,0.0000
 0693,0.00000546,-0.00000789,-0.00000627,-0.00000237,0.00000330,-0.0000
 0430,-0.00000437,-0.00000071,0.00000676,-0.00000361,-0.00000272,-0.000
 00260,-0.00000110,0.00000081,-0.00000250,0.00000031,0.00000119,0.00000
 187,0.00000042,0.00000069,0.00000018,-0.00000235,-0.00000155,-0.000001
 56,0.00000062,0.00000041,-0.00000208,-0.00000004,-0.00000165,0.0000005
 7,-0.00000110,0.00000126,0.00000055,0.00000047,-0.00000632,0.00000090,
 0.00000501,0.00000257,-0.00000013,-0.00000330,0.00000282,-0.00000106,-
 0.00000054,-0.00000285,-0.00000021,0.00000209,-0.00000605,-0.00002181,
 0.00001191,-0.00125915,0.00035104,0.00041689,0.00034475,0.00001719,-0.
 00000911,-0.00008523,0.00002761,-0.00015192,0.00035895,-0.00018673,0.0
 0019849,-0.00022679,-0.00015579,0.00004735,-0.00000646,0.00000422,0.00
 105181,0.00086250,0.00264865,0.01076062,0.00022096,0.00022133,-0.02278
 072,-0.04957702,-0.00358434,-0.00006176,-0.00002204,-0.00066885,-0.000
 24567,0.00030149,-0.00030447,0.00002174,0.00006345,0.00013687,-0.00000
 845,-0.00001707,-0.00002011,0.00002073,-0.00002896,-0.00003660,-0.0000
 1922,-0.00001782,-0.00008487,-0.00001919,0.00000031,-0.00000617,0.0000
 0353,0.00000234,0.00000173,0.00000627,-0.00000313,0.00000463,0.0000046
 7,-0.00000167,-0.00000055,-0.00006034,0.00009769,-0.00012893,0.0000060
 3,0.00005739,-0.00010026,-0.00024565,0.00025678,0.00011226,-0.00002897
 ,-0.00005690,-0.00003676,0.00000625,-0.00000889,-0.00000312,0.00001778
 ,0.00001420,0.00001600,0.00011495,0.00005620,-0.00006392,0.00005641,-0
 .00002821,0.00011891,-0.00011984,-0.00014229,0.00009976,0.01716956,0.0
 0164965,0.00452705,-0.03069368,-0.00075706,-0.00550799,0.02458551,0.04
 792018,-0.00027451,-0.00007906,0.00003219,0.00004110,-0.00001803,-0.00
 005140,0.00008174,0.00010173,0.00006849,-0.00008636,-0.00011557,-0.000
 05689,0.00015064,-0.00002927,-0.00003370,0.00013883,0.00000800,0.00010
 417,-0.00000434,-0.00004447,-0.00000328,-0.00004928,0.00006597,0.00000
 568,0.00007409,-0.00002420,0.00000223,-0.00006065,-0.00003226,-0.00002
 049,-0.00001215,0.00003888,-0.00000737,0.00000021,-0.00000210,-0.00001
 395,-0.00000436,0.00000569,0.00000204,0.00000622,-0.00001484,-0.000011
 15,0.00000167,-0.00000175,0.00000284,-0.00000228,-0.00000416,-0.000001
 71,0.00001240,0.00006532,0.00014855,-0.00003416,0.00007919,0.00006417,
 0.00000860,0.00006346,-0.00008728,0.00000369,0.00001431,-0.00000521,0.
 00000231,0.00001614,0.00003851,0.00001646,0.00001823,0.00000296,-0.000
 00321,-0.00007004,-0.00003851,-0.00002880,-0.00003437,-0.00000952,-0.0
 0003489,-0.00004562,0.00000191,0.00004982,0.00002232,0.00000915,0.0000
 0820,0.00001246,-0.00000508,-0.00000443,-0.00000753,-0.00000490,-0.000
 00006,-0.00000330,0.00000367,-0.00000931,-0.00000456,-0.00000218,-0.00
 000240,-0.00000483,-0.00000044,-0.00000680,0.00000056,-0.00000001,0.00
 002174,-0.00001075,-0.00002302,-0.00001433,0.00004383,0.00002048,-0.00
 000021,-0.00000311,-0.00000006,0.00000113,0.00000118,0.00000170,0.0000
 0021,0.00000055,-0.00000079,-0.00000031,0.00000044,0.00000049,0.000000
 04,0.00000076,-0.00000050,0.00000035,0.00000005,-0.00000007,-0.0000005
 5,0.00000041,0.00000020,-0.00000002,0.00000101,-0.00000063,-0.00000372
 ,0.00000106,0.00000354,0.00000239,-0.00000207,-0.00000033,-0.00000124,
 -0.00000050,0.00000125,0.00000006,0.00000153,-0.00000135,0.00000015,0.
 00000178,0.00000193,0.00000006,0.00000007,-0.00000041,-0.00000006,-0.0
 0000120,-0.00000042,0.00000064,0.00000238,-0.00000034,0.00000045,-0.00
 000100,-0.00000034,0.00000007,-0.00000030,0.00000024,0.00000080,-0.000
 00142,0.00000114,0.00000054,0.00000089,0.,0.00000129,0.00000359,-0.000
 00323,0.00000002,0.00000112,0.00000120,-0.00000184,0.00000021,0.000001
 96,0.00000043,-0.00000051,0.00000094,-0.00000419,0.00000001,0.00000432
 ,-0.00000182,0.00000166,0.00000039,0.00000254,0.00000047,-0.00000155,0
 .00000164,-0.00000259,0.00000130,-0.00001145,-0.00000288,-0.00000357,0
 .00000058,0.00000148,0.00000315,-0.00000006,0.00000091,0.00000097,0.00
 000521,0.00000055,-0.00000123,-0.00000403,0.00000221,0.00000021,-0.000
 00148,0.00000304,0.00000257,0.00000253,-0.00000149,0.00000189,0.000004
 22,0.00000002,-0.00000418,-0.00000183,0.00000372,0.00000063,0.00000081
 ,-0.00000144,0.00000099,0.00000085,-0.00000185,-0.00000143,0.00000041,
 0.00000020,-0.00000060,0.00000212,0.00000094,-0.00000013,-0.00000105,-
 0.00000039,0.00000062,0.00000027,0.00000146,0.00000012,0.00000046,-0.0
 0000093,-0.00000044,0.00000168,0.00000211,-0.00000064,-0.00000052,-0.0
 0000039,0.00000031,0.00000100,-0.00000069,-0.00000042,0.00000014,0.000
 00103,0.00000138,0.00001232,0.00000908,0.00003453,0.00073293,0.0021708
 2,0.00004873,-0.00118989,-0.00065910,-0.00004571,-0.00008166,0.0000129
 1,-0.00012345,0.00007171,-0.00124207,-0.00065939,0.00037845,0.00003583
 ,-0.00026945,-0.00012545,0.00014650,-0.00000048,-0.00316206,0.00192315
 ,-0.00640409,-0.02950525,-0.00435609,-0.00150109,-0.04174052,-0.003337
 86,-0.05513648,0.00042964,0.00019130,0.00124848,0.00057287,-0.00099542
 ,0.00094442,-0.00019528,0.00006150,-0.00034249,0.00003961,-0.00004088,
 0.00005889,0.00002147,0.00000167,0.00005622,0.00009034,-0.00002729,0.0
 0022377,0.00010015,-0.00001261,0.00003876,-0.00002101,-0.00000814,-0.0
 0001068,-0.00003256,0.00001718,-0.00002745,-0.00002671,0.00000970,0.00
 000212,0.00006277,-0.00003382,0.00000349,0.00003976,-0.00005112,-0.000
 05235,0.00002085,0.00000799,0.00007026,-0.00000145,0.00001849,0.000021
 39,0.00000203,-0.00003952,-0.00001141,-0.00001208,0.00001569,-0.000008
 65,0.00010943,0.00011094,0.00001518,0.00003883,-0.00004998,0.00018891,
 -0.00018778,-0.00018362,0.00021042,0.02156379,0.00391063,0.00472004,0.
 00389572,-0.00026551,-0.00056399,0.04811489,0.00263625,0.05712985\\0.0
 0000692,0.00000261,0.00000174,-0.00000464,-0.00000536,0.00000027,-0.00
 000088,-0.00000139,-0.00000394,0.00000502,-0.00000048,0.00000415,-0.00
 000433,-0.00000137,0.00000083,-0.00000009,0.00000687,0.00000294,0.0000
 1111,-0.00000645,-0.00000192,0.00000740,-0.00001102,-0.00000297,-0.000
 00694,0.00000391,0.00000199,0.00000404,-0.00000068,0.00000465,-0.00000
 051,0.00000326,0.00000111,-0.00000152,0.00000081,-0.00000105,-0.000000
 73,-0.00000122,-0.00000003,-0.00000403,0.00000681,0.00000245,-0.000000
 54,-0.00000117,0.00000230,-0.00000003,-0.00000040,-0.00000026,0.000003
 99,-0.00000701,-0.00000451,-0.00000684,0.00000456,0.00000107,0.0000068
 1,0.00000382,0.00000414,0.00000808,-0.00000348,-0.00000247,-0.00000032
 ,0.00000448,-0.00000515,0.00000037,0.00000791,0.00000616,-0.00000108,-
 0.00000244,-0.00000068,-0.00001250,-0.00000030,-0.00000358,0.00000375,
 0.00000126,0.00000431,-0.00000526,0.00000315,-0.00000244,0.00000107,-0
 .00000310,-0.00000016,0.00000068,-0.00000348,-0.00000228,-0.00000708,0
 .00000015,0.00000594,0.00000158,-0.00000625,0.00000490,0.00000515,0.00
 000279,-0.00000054,0.00000211,-0.00000651,0.00000173,-0.00000765,0.000
 00708,-0.00000280,0.00000347,0.00000040,-0.00000511,0.00000569,-0.0000
 0245,-0.00000188,-0.00000329,-0.00000647,0.00000253,-0.00000114,-0.000
 00017,0.00000035,-0.00000138,0.00000042,0.00000010,-0.00000143,0.00000
 309,-0.00000627,-0.00000155,-0.00000011,-0.00000162,0.00000005,-0.0000
 0213,0.00000244,-0.00000065,-0.00000077,0.00000042,-0.00000542,-0.0000
 0015,0.00000302,0.00000240,-0.00000042,-0.00000295,0.00000182,-0.00000
 195,0.00000001,0.00000231,-0.00000076,0.00000366,-0.00000340,0.0000051
 6,0.00000024,0.00000118,-0.00000076,0.00000099,0.00000361,-0.00000413,
 -0.00000185,-0.00000134,-0.00000257,-0.00000214,0.00000287,0.00000188,
 0.00000002,-0.00000084,0.00000150,-0.00000118,-0.00000129,-0.00000306,
 -0.00000483,-0.00000441,-0.00000406,-0.00000120,-0.00000472,0.00000583
 ,-0.00000359,0.00000144,0.00000187,0.00000085,0.00000142,-0.00000191,0
 .00000207,0.00000122,-0.00000006,-0.00000004,0.00000037,-0.00000028,0.
 00000445,0.00000152,-0.00000140,-0.00000049,0.00000094,0.00000048,0.00
 000052,0.00000161,0.00000153,-0.00000397,-0.00000034,0.00000384,0.0000
 0710,0.00000133,-0.00000048,-0.00000256,-0.00000026,-0.00000072,0.0000
 0200,-0.00000111,-0.00000357,-0.00000078,-0.00000304,-0.00000639,-0.00
 000449,0.00000031,0.00000017,-0.00000279,0.00000025,0.00000376,-0.0000
 0082,0.00000079,-0.00000105,-0.00000113,0.00000061,-0.00000541,0.00000
 018,0.00000124,-0.00000232,-0.00000091,-0.00000386,0.00000196,0.000003
 09,0.00000078,0.00000375,-0.00000210,0.00000090,0.00000281,-0.00000101
 ,0.00000166,0.00000005,-0.00000397,-0.00000195,-0.00000073,-0.00000167
 ,0.00000048,0.00000030,-0.00000141,-0.00000720,-0.00000543,-0.00000201
 ,0.00000120,0.00000191,-0.00000275,0.00000140,0.,0.00000188,0.00000316
 ,0.00000681,0.00000204,-0.00000743,-0.00000696,-0.00001140,0.00000509,
 0.00000270,0.00000885,-0.00000331,0.00000122,-0.00000320,0.00000170,0.
 00000289,0.00000186,-0.00000325,0.00000419,0.00000552,-0.00000133,0.00
 000900,0.00000611,0.00000774,-0.00000312,-0.00000059,-0.00000050,-0.00
 001736,-0.00000577,-0.00000490,0.00001317,0.00000442,-0.00000325,-0.00
 000471,-0.00000544,0.00000158,-0.00000265,0.00000072,0.00000100,-0.000
 00038,-0.00000050,0.00000110,0.00000100,0.00000566,-0.00000047,0.00000
 199,0.00000017,0.00000065,-0.00000082,0.00000002,-0.00000012,0.0000011
 4,-0.00000556,-0.00000725,-0.00000038,-0.00000538,0.00000388,0.0000064
 5,0.00000230,0.00000348,0.00000291,0.00000112,-0.00000030,-0.00000208,
 0.00000503,-0.00000467,0.00000646,-0.00000272,0.00000093,0.00000031,-0
 .00000077,-0.00000235,0.00000231,-0.00000007,0.00000261,-0.00000131,0.
 00000333,0.00000132,-0.00000190,0.00000104,0.00000162,0.00000030,0.000
 00169,-0.00000767,-0.00000048,-0.00000306,0.00000677,-0.00000156,0.000
 00120,0.00000294,-0.00000236,0.00000176,-0.00000237,0.00000282,-0.0000
 0003,0.00000139,0.00000187,0.00000303,0.00000483,0.00000014,0.00000227
 \\\@
 The archive entry for this job was punched.


 IN NATURE THERE ARE NEITHER REWARDS OR
 PUNISHMENTS -- THERE ARE CONSEQUENCES.

                            -- ROBERT GREEN INGERSOLL
 Job cpu time:       2 days 11 hours 14 minutes 35.8 seconds.
 Elapsed time:       0 days  3 hours 46 minutes 13.2 seconds.
 File lengths (MBytes):  RWF=  11041 Int=      0 D2E=      0 Chk=     59 Scr=      1
 Normal termination of Gaussian 16 at Sat Dec  7 22:33:52 2024.
