/mnt/lustre/scratch/nvme/SLURM/9663595/usccqdma.yIhuzpfYCO
OMP_STACKSIZE=0m
GAUSS_PDEF=16
GAUSS_MDEF=65536MB
GAUSS_RDEF=SCF=Direct
 Entering Gaussian System, Link 0=g16.exe
 Initial command:
 /opt/cesga/2020/software/Core/g16/c1/l1.exe "/mnt/lustre/scratch/nvme/SLURM/9663595/usccqdma.yIhuzpfYCO/Gau-2655928.inp" -scrdir="/mnt/lustre/scratch/nvme/SLURM/9663595/usccqdma.yIhuzpfYCO/"
 Default is to use a total of  16 processors:
                               16 via shared-memory
                                1 via Linda
 Entering Link 1 = /opt/cesga/2020/software/Core/g16/c1/l1.exe PID=   2655954.
  
 Copyright (c) 1988-2019, Gaussian, Inc.  All Rights Reserved.
  
 This is part of the Gaussian(R) 16 program.  It is based on
 the Gaussian(R) 09 system (copyright 2009, Gaussian, Inc.),
 the Gaussian(R) 03 system (copyright 2003, Gaussian, Inc.),
 the Gaussian(R) 98 system (copyright 1998, Gaussian, Inc.),
 the Gaussian(R) 94 system (copyright 1995, Gaussian, Inc.),
 the Gaussian 92(TM) system (copyright 1992, Gaussian, Inc.),
 the Gaussian 90(TM) system (copyright 1990, Gaussian, Inc.),
 the Gaussian 88(TM) system (copyright 1988, Gaussian, Inc.),
 the Gaussian 86(TM) system (copyright 1986, Carnegie Mellon
 University), and the Gaussian 82(TM) system (copyright 1983,
 Carnegie Mellon University). Gaussian is a federally registered
 trademark of Gaussian, Inc.
  
 This software contains proprietary and confidential information,
 including trade secrets, belonging to Gaussian, Inc.
  
 This software is provided under written license and may be
 used, copied, transmitted, or stored only in accord with that
 written license.
  
 The following legend is applicable only to US Government
 contracts under FAR:
  
                    RESTRICTED RIGHTS LEGEND
  
 Use, reproduction and disclosure by the US Government is
 subject to restrictions as set forth in subparagraphs (a)
 and (c) of the Commercial Computer Software - Restricted
 Rights clause in FAR 52.227-19.
  
 Gaussian, Inc.
 340 Quinnipiac St., Bldg. 40, Wallingford CT 06492
  
  
 ---------------------------------------------------------------
 Warning -- This program may not be used in any manner that
 competes with the business of Gaussian, Inc. or will provide
 assistance to any competitor of Gaussian, Inc.  The licensee
 of this program is prohibited from giving any competitor of
 Gaussian, Inc. access to this program.  By using this program,
 the user acknowledges that Gaussian, Inc. is engaged in the
 business of creating and licensing software in the field of
 computational chemistry and represents and warrants to the
 licensee that it is not a competitor of Gaussian, Inc. and that
 it will not use this program in any manner prohibited above.
 ---------------------------------------------------------------
  

 Cite this work as:
 Gaussian 16, Revision C.01,
 M. J. Frisch, G. W. Trucks, H. B. Schlegel, G. E. Scuseria, 
 M. A. Robb, J. R. Cheeseman, G. Scalmani, V. Barone, 
 G. A. Petersson, H. Nakatsuji, X. Li, M. Caricato, A. V. Marenich, 
 J. Bloino, B. G. Janesko, R. Gomperts, B. Mennucci, H. P. Hratchian, 
 J. V. Ortiz, A. F. Izmaylov, J. L. Sonnenberg, D. Williams-Young, 
 F. Ding, F. Lipparini, F. Egidi, J. Goings, B. Peng, A. Petrone, 
 T. Henderson, D. Ranasinghe, V. G. Zakrzewski, J. Gao, N. Rega, 
 G. Zheng, W. Liang, M. Hada, M. Ehara, K. Toyota, R. Fukuda, 
 J. Hasegawa, M. Ishida, T. Nakajima, Y. Honda, O. Kitao, H. Nakai, 
 T. Vreven, K. Throssell, J. A. Montgomery, Jr., J. E. Peralta, 
 F. Ogliaro, M. J. Bearpark, J. J. Heyd, E. N. Brothers, K. N. Kudin, 
 V. N. Staroverov, T. A. Keith, R. Kobayashi, J. Normand, 
 K. Raghavachari, A. P. Rendell, J. C. Burant, S. S. Iyengar, 
 J. Tomasi, M. Cossi, J. M. Millam, M. Klene, C. Adamo, R. Cammi, 
 J. W. Ochterski, R. L. Martin, K. Morokuma, O. Farkas, 
 J. B. Foresman, and D. J. Fox, Gaussian, Inc., Wallingford CT, 2019.
 
 ******************************************
 Gaussian 16:  ES64L-G16RevC.01  3-Jul-2019
                 7-Dec-2024 
 ******************************************
 Default route: SCF=Direct
 ----------------------------------------------------
 # m06/genecp scf=tight int=ultrafine 5d freq=noraman
 ----------------------------------------------------
 1/10=4,30=1,38=1/1,3;
 2/12=2,17=6,18=5,40=1/2;
 3/5=7,8=1,11=2,16=1,17=8,25=1,30=1,71=2,74=-54,75=-5,140=1/1,2,3;
 4//1;
 5/5=2,32=2,38=5,98=1/2;
 8/6=4,10=90,11=11/1;
 11/6=1,8=1,9=11,15=111,16=1/1,2,10;
 10/6=1/2;
 6/7=2,8=2,9=2,10=2,28=1/1;
 7/8=1,10=1,25=1/1,2,3,16;
 1/10=4,30=1/3;
 99//99;
 ------
 OPT-TS
 ------
 Symbolic Z-matrix:
 Charge =  0 Multiplicity = 1
 C                     0.40299   4.12082   0.3026 
 C                    -0.83385   3.46187   0.31436 
 C                    -0.88139   2.0818    0.24053 
 C                     0.32073   1.36165   0.14017 
 C                     4.01983   2.05102   0.07869 
 C                     5.16632   1.27802   0.01566 
 C                     5.04906  -0.10897  -0.04696 
 C                     3.77892  -0.67003  -0.04423 
 H                     3.64238  -1.7509   -0.09465 
 C                     2.77747   1.42008   0.07887 
 C                     1.50383   2.13422   0.15045 
 C                    -2.4735   -1.8093   -2.69837 
 C                    -2.77863  -0.28481  -2.61252 
 C                    -1.62287  -2.18346  -3.9039 
 H                    -0.7377   -1.5385   -3.97993 
 H                    -2.1885   -2.11378  -4.84233 
 H                    -1.27856  -3.21833  -3.78526 
 C                    -3.69103  -2.70749  -2.62505 
 H                    -3.37778  -3.75924  -2.64494 
 H                    -4.35341  -2.53281  -3.48502 
 H                    -4.26729  -2.5432   -1.70707 
 C                    -2.9271    0.4092   -3.95097 
 H                    -3.13414   1.47494  -3.79291 
 H                    -3.76539  -0.01815  -4.5197 
 H                    -2.01653   0.32985  -4.55444 
 C                    -3.96572   0.04793  -1.71875 
 H                    -3.86987  -0.43564  -0.73748 
 H                    -4.92078  -0.2434   -2.17603 
 H                    -3.98105   1.13279  -1.54956 
 B                    -1.06655  -0.81151  -1.20965 
 N                     1.55106   3.47307   0.22867 
 N                     2.67485   0.07197   0.01543 
 O                    -1.6591   -2.02604  -1.52786 
 O                    -1.60754   0.22229  -1.94856 
 Ir                    0.53271  -0.579    -0.00052 
 B                    -1.09864  -1.14022   1.04711 
 O                    -1.00277  -2.34694   1.71778 
 O                    -2.29796  -0.50391   1.31163 
 C                    -2.3003   -2.63565   2.27637 
 C                    -2.92797  -1.21452   2.3978 
 C                    -3.02428  -3.5314    1.28237 
 C                    -2.11809  -3.36207   3.59316 
 C                    -4.43023  -1.16288   2.21125 
 C                    -2.53673  -0.4925    3.67944 
 H                    -3.14635  -3.02934   0.31441 
 H                    -4.00728  -3.84643   1.65748 
 H                    -2.41611  -4.42833   1.11166 
 H                    -1.6676   -4.34601   3.41224 
 H                    -3.08745  -3.51942   4.08767 
 H                    -1.46157  -2.81149   4.27532 
 H                    -4.77561  -0.12311   2.27506 
 H                    -4.93877  -1.73925   2.99717 
 H                    -4.73542  -1.56185   1.23691 
 H                    -1.45064  -0.52228   3.83645 
 H                    -3.03058  -0.92462   4.55964 
 H                    -2.83682   0.55954   3.59829 
 H                     0.44578   5.21039   0.35734 
 H                    -1.83419   1.5602    0.26196 
 H                     4.04757   3.13617   0.12864 
 H                     6.15102   1.74007   0.01218 
 C                    -2.07606   4.28914   0.41981 
 F                    -2.1367    4.92335   1.59921 
 F                    -2.10533   5.23732  -0.52643 
 F                    -3.18845   3.56102   0.29691 
 C                     6.23633  -1.0188   -0.09129 
 F                     6.33049  -1.74252   1.0298 
 F                     6.1414   -1.88597  -1.10529 
 F                     7.37537  -0.33959  -0.23529 
 

 GradGradGradGradGradGradGradGradGradGradGradGradGradGradGradGradGradGrad
 Berny optimization.
 Initialization pass.
 Trust Radius=3.00D-01 FncErr=1.00D-07 GrdErr=1.00D-07 EigMax=2.50D+02 EigMin=1.00D-04
 Number of steps in this run=      2 maximum allowed number of steps=      2.
 GradGradGradGradGradGradGradGradGradGradGradGradGradGradGradGradGradGrad

 Stoichiometry    C24H29B2F6IrN2O4
 Framework group  C1[X(C24H29B2F6IrN2O4)]
 Deg. of freedom   198
 Full point group                 C1      NOp   1
 Largest Abelian subgroup         C1      NOp   1
 Largest concise Abelian subgroup C1      NOp   1
                         Standard orientation:                         
 ---------------------------------------------------------------------
 Center     Atomic      Atomic             Coordinates (Angstroms)
 Number     Number       Type             X           Y           Z
 ---------------------------------------------------------------------
      1          6           0       -0.402988    4.120819   -0.302600
      2          6           0        0.833852    3.461868   -0.314360
      3          6           0        0.881391    2.081798   -0.240530
      4          6           0       -0.320730    1.361649   -0.140170
      5          6           0       -4.019829    2.051021   -0.078690
      6          6           0       -5.166320    1.278022   -0.015660
      7          6           0       -5.049060   -0.108968    0.046960
      8          6           0       -3.778921   -0.670029    0.044230
      9          1           0       -3.642381   -1.750899    0.094650
     10          6           0       -2.777470    1.420080   -0.078870
     11          6           0       -1.503829    2.134220   -0.150450
     12          6           0        2.473499   -1.809302    2.698370
     13          6           0        2.778630   -0.284813    2.612520
     14          6           0        1.622869   -2.183462    3.903900
     15          1           0        0.737699   -1.538502    3.979930
     16          1           0        2.188499   -2.113782    4.842330
     17          1           0        1.278558   -3.218332    3.785260
     18          6           0        3.691028   -2.707493    2.625050
     19          1           0        3.377778   -3.759243    2.644940
     20          1           0        4.353408   -2.532813    3.485020
     21          1           0        4.267288   -2.543203    1.707070
     22          6           0        2.927100    0.409197    3.950970
     23          1           0        3.134140    1.474937    3.792910
     24          1           0        3.765390   -0.018153    4.519700
     25          1           0        2.016530    0.329848    4.554440
     26          6           0        3.965720    0.047927    1.718750
     27          1           0        3.869869   -0.435643    0.737480
     28          1           0        4.920780   -0.243404    2.176030
     29          1           0        3.981050    1.132787    1.549560
     30          5           0        1.066549   -0.811512    1.209650
     31          7           0       -1.551058    3.473070   -0.228670
     32          7           0       -2.674850    0.071970   -0.015430
     33          8           0        1.659099   -2.026042    1.527860
     34          8           0        1.607540    0.222288    1.948560
     35         77           0       -0.532711   -0.579001    0.000520
     36          5           0        1.098639   -1.140222   -1.047110
     37          8           0        1.002768   -2.346942   -1.717780
     38          8           0        2.297959   -0.503912   -1.311630
     39          6           0        2.300298   -2.635652   -2.276370
     40          6           0        2.927969   -1.214523   -2.397800
     41          6           0        3.024278   -3.531403   -1.282370
     42          6           0        2.118088   -3.362072   -3.593160
     43          6           0        4.430229   -1.162883   -2.211250
     44          6           0        2.536729   -0.492502   -3.679440
     45          1           0        3.146348   -3.029343   -0.314410
     46          1           0        4.007278   -3.846433   -1.657480
     47          1           0        2.416107   -4.428332   -1.111660
     48          1           0        1.667597   -4.346012   -3.412240
     49          1           0        3.087448   -3.519423   -4.087670
     50          1           0        1.461568   -2.811492   -4.275320
     51          1           0        4.775610   -0.123114   -2.275060
     52          1           0        4.938769   -1.739254   -2.997170
     53          1           0        4.735419   -1.561854   -1.236910
     54          1           0        1.450639   -0.522282   -3.836450
     55          1           0        3.030579   -0.924623   -4.559640
     56          1           0        2.836820    0.559537   -3.598290
     57          1           0       -0.445778    5.210389   -0.357340
     58          1           0        1.834191    1.560198   -0.261960
     59          1           0       -4.047569    3.136171   -0.128640
     60          1           0       -6.151019    1.740072   -0.012180
     61          6           0        2.076062    4.289138   -0.419810
     62          9           0        2.136702    4.923348   -1.599210
     63          9           0        2.105332    5.237318    0.526430
     64          9           0        3.188452    3.561017   -0.296910
     65          6           0       -6.236331   -1.018798    0.091290
     66          9           0       -6.330491   -1.742518   -1.029800
     67          9           0       -6.141401   -1.885968    1.105290
     68          9           0       -7.375370   -0.339587    0.235290
 ---------------------------------------------------------------------
 Rotational constants (GHZ):           0.0993596           0.0607611           0.0510045
 General basis read from cards:  (5D, 7F)
 ======================================================================================================
                                       Pseudopotential Parameters
 ======================================================================================================
  Center     Atomic      Valence      Angular      Power
  Number     Number     Electrons     Momentum     of R      Exponent        Coefficient   SO-Coeffient
 ======================================================================================================
    1          6
                                   No pseudopotential on this center.
    2          6
                                   No pseudopotential on this center.
    3          6
                                   No pseudopotential on this center.
    4          6
                                   No pseudopotential on this center.
    5          6
                                   No pseudopotential on this center.
    6          6
                                   No pseudopotential on this center.
    7          6
                                   No pseudopotential on this center.
    8          6
                                   No pseudopotential on this center.
    9          1
                                   No pseudopotential on this center.
   10          6
                                   No pseudopotential on this center.
   11          6
                                   No pseudopotential on this center.
   12          6
                                   No pseudopotential on this center.
   13          6
                                   No pseudopotential on this center.
   14          6
                                   No pseudopotential on this center.
   15          1
                                   No pseudopotential on this center.
   16          1
                                   No pseudopotential on this center.
   17          1
                                   No pseudopotential on this center.
   18          6
                                   No pseudopotential on this center.
   19          1
                                   No pseudopotential on this center.
   20          1
                                   No pseudopotential on this center.
   21          1
                                   No pseudopotential on this center.
   22          6
                                   No pseudopotential on this center.
   23          1
                                   No pseudopotential on this center.
   24          1
                                   No pseudopotential on this center.
   25          1
                                   No pseudopotential on this center.
   26          6
                                   No pseudopotential on this center.
   27          1
                                   No pseudopotential on this center.
   28          1
                                   No pseudopotential on this center.
   29          1
                                   No pseudopotential on this center.
   30          5
                                   No pseudopotential on this center.
   31          7
                                   No pseudopotential on this center.
   32          7
                                   No pseudopotential on this center.
   33          8
                                   No pseudopotential on this center.
   34          8
                                   No pseudopotential on this center.
   35         77           17
                                      G and up 
                                                     1      823.5880147       -0.15780140    0.00000000
                                                     2      364.6613336    -1517.52704460    0.00000000
                                                     2       55.7082801     -316.53065290    0.00000000
                                                     2       12.0464544      -91.88809410    0.00000000
                                                     2        3.5120610       -9.22417730    0.00000000
                                      S - G
                                                     0      188.0490770        3.15780140    0.00000000
                                                     1      340.4194712       26.83225770    0.00000000
                                                     2      128.2373673      800.42500070    0.00000000
                                                     2       33.8644961      369.40506830    0.00000000
                                                     2        4.7560005      242.41718990    0.00000000
                                                     2        3.9649974     -118.21732820    0.00000000
                                      P - G
                                                     0      289.7291139        2.15780140    0.00000000
                                                     1       87.4633789       61.96786100    0.00000000
                                                     2       30.4363766      269.05819860    0.00000000
                                                     2        4.0553412      231.16547930    0.00000000
                                                     2        3.5525341     -133.69526670    0.00000000
                                      D - G
                                                     0      136.4017106        3.15780140    0.00000000
                                                     1       95.0776925       45.93498030    0.00000000
                                                     2       49.2258410      359.03446680    0.00000000
                                                     2       15.0874145      176.47401190    0.00000000
                                                     2        4.0405764       54.51552860    0.00000000
                                      F - G
                                                     0      127.3507908        3.95461970    0.00000000
                                                     1       66.2364374       52.97736550    0.00000000
                                                     2       34.4299229      274.86433830    0.00000000
                                                     2       10.1995721      137.20473380    0.00000000
                                                     2        2.5409702       14.86333050    0.00000000
   36          5
                                   No pseudopotential on this center.
   37          8
                                   No pseudopotential on this center.
   38          8
                                   No pseudopotential on this center.
   39          6
                                   No pseudopotential on this center.
   40          6
                                   No pseudopotential on this center.
   41          6
                                   No pseudopotential on this center.
   42          6
                                   No pseudopotential on this center.
   43          6
                                   No pseudopotential on this center.
   44          6
                                   No pseudopotential on this center.
   45          1
                                   No pseudopotential on this center.
   46          1
                                   No pseudopotential on this center.
   47          1
                                   No pseudopotential on this center.
   48          1
                                   No pseudopotential on this center.
   49          1
                                   No pseudopotential on this center.
   50          1
                                   No pseudopotential on this center.
   51          1
                                   No pseudopotential on this center.
   52          1
                                   No pseudopotential on this center.
   53          1
                                   No pseudopotential on this center.
   54          1
                                   No pseudopotential on this center.
   55          1
                                   No pseudopotential on this center.
   56          1
                                   No pseudopotential on this center.
   57          1
                                   No pseudopotential on this center.
   58          1
                                   No pseudopotential on this center.
   59          1
                                   No pseudopotential on this center.
   60          1
                                   No pseudopotential on this center.
   61          6
                                   No pseudopotential on this center.
   62          9
                                   No pseudopotential on this center.
   63          9
                                   No pseudopotential on this center.
   64          9
                                   No pseudopotential on this center.
   65          6
                                   No pseudopotential on this center.
   66          9
                                   No pseudopotential on this center.
   67          9
                                   No pseudopotential on this center.
   68          9
                                   No pseudopotential on this center.
 ======================================================================================================
 There are   652 symmetry adapted cartesian basis functions of A   symmetry.
 There are   612 symmetry adapted basis functions of A   symmetry.
   612 basis functions,  1223 primitive gaussians,   652 cartesian basis functions
   150 alpha electrons      150 beta electrons
       nuclear repulsion energy      5124.9565517229 Hartrees.
 NAtoms=   68 NActive=   68 NUniq=   68 SFac= 1.00D+00 NAtFMM=   60 NAOKFM=T Big=T
 Integral buffers will be    131072 words long.
 Raffenetti 2 integral format.
 Two-electron integral symmetry is turned on.
 One-electron integrals computed using PRISM.
   1 Symmetry operations used in ECPInt.
 ECPInt:  NShTT=   23871 NPrTT=  152307 LenC2=   17979 LenP2D=   60011.
 LDataN:  DoStor=T MaxTD1= 6 Len=  172
 NBasis=   612 RedAO= T EigKep=  4.92D-04  NBF=   612
 NBsUse=   612 1.00D-06 EigRej= -1.00D+00 NBFU=   612
 Defaulting to unpruned grid for atomic number  77.
 ExpMin= 2.90D-02 ExpMax= 7.00D+03 ExpMxC= 1.05D+03 IAcc=3 IRadAn=         5 AccDes= 0.00D+00
 Harris functional with IExCor= 1009 and IRadAn=       5 diagonalized for initial guess.
 HarFok:  IExCor= 1009 AccDes= 0.00D+00 IRadAn=         5 IDoV= 1 UseB2=F ITyADJ=14
 ICtDFT=  3500011 ScaDFX=  1.000000  1.000000  1.000000  1.000000
 Defaulting to unpruned grid for atomic number  77.
 FoFCou: FMM=F IPFlag=           0 FMFlag=      100000 FMFlg1=        2001
         NFxFlg=           0 DoJE=T BraDBF=F KetDBF=T FulRan=T
         wScrn=  0.000000 ICntrl=       500 IOpCl=  0 I1Cent=   200000004 NGrid=           0
         NMat0=    1 NMatS0=      1 NMatT0=    0 NMatD0=    1 NMtDS0=    0 NMtDT0=    0
 Petite list used in FoFCou.
 Requested convergence on RMS density matrix=1.00D-08 within 128 cycles.
 Requested convergence on MAX density matrix=1.00D-06.
 Requested convergence on             energy=1.00D-06.
 No special actions if energy rises.
 Defaulting to unpruned grid for atomic number  77.
 Defaulting to unpruned grid for atomic number  77.
 Defaulting to unpruned grid for atomic number  77.
 Defaulting to unpruned grid for atomic number  77.
 Defaulting to unpruned grid for atomic number  77.
 Defaulting to unpruned grid for atomic number  77.
 Defaulting to unpruned grid for atomic number  77.
 Defaulting to unpruned grid for atomic number  77.
 Defaulting to unpruned grid for atomic number  77.
 Defaulting to unpruned grid for atomic number  77.
 Defaulting to unpruned grid for atomic number  77.
 Defaulting to unpruned grid for atomic number  77.
 Defaulting to unpruned grid for atomic number  77.
 Defaulting to unpruned grid for atomic number  77.
 Defaulting to unpruned grid for atomic number  77.
 Defaulting to unpruned grid for atomic number  77.
 SCF Done:  E(RM06) =  -2095.00549774     A.U. after   17 cycles
            NFock= 17  Conv=0.52D-08     -V/T= 2.0413
 DoSCS=F DFT=T ScalE2(SS,OS)=  1.000000  1.000000
 Range of M.O.s used for correlation:     1   612
 NBasis=   612 NAE=   150 NBE=   150 NFC=     0 NFV=     0
 NROrb=    612 NOA=   150 NOB=   150 NVA=   462 NVB=   462
   1 Symmetry operations used in ECPInt.
 ECPInt:  NShTT=   23871 NPrTT=  152307 LenC2=   17979 LenP2D=   60011.
 LDataN:  DoStor=T MaxTD1= 7 Len=  274
 Number of processors reduced to  13 by ecpmxn.
 Symmetrizing basis deriv contribution to polar:
 IMax=3 JMax=2 DiffMx= 0.00D+00
 G2DrvN: will do    69 centers at a time, making    1 passes.
 Calling FoFCou, ICntrl=  3107 FMM=T I1Cent=   0 AccDes= 0.00D+00.
 Defaulting to unpruned grid for atomic number  77.
 Defaulting to unpruned grid for atomic number  77.
 Defaulting to unpruned grid for atomic number  77.
 Defaulting to unpruned grid for atomic number  77.
 Defaulting to unpruned grid for atomic number  77.
 Defaulting to unpruned grid for atomic number  77.
 Defaulting to unpruned grid for atomic number  77.
 Defaulting to unpruned grid for atomic number  77.
 Defaulting to unpruned grid for atomic number  77.
 Defaulting to unpruned grid for atomic number  77.
 Defaulting to unpruned grid for atomic number  77.
 Defaulting to unpruned grid for atomic number  77.
 Defaulting to unpruned grid for atomic number  77.
 Defaulting to unpruned grid for atomic number  77.
 Defaulting to unpruned grid for atomic number  77.
 Defaulting to unpruned grid for atomic number  77.
 End of G2Drv F.D. properties file   721 does not exist.
 End of G2Drv F.D. properties file   722 does not exist.
 End of G2Drv F.D. properties file   788 does not exist.
          IDoAtm=11111111111111111111111111111111111111111111111111
          IDoAtm=111111111111111111
          Differentiating once with respect to electric field.
                with respect to dipole field.
          Differentiating once with respect to nuclear coordinates.
 Defaulting to unpruned grid for atomic number  77.
 CalDSu exits because no D1Ps are significant.
 Defaulting to unpruned grid for atomic number  77.
 Defaulting to unpruned grid for atomic number  77.
 Defaulting to unpruned grid for atomic number  77.
 Defaulting to unpruned grid for atomic number  77.
 Defaulting to unpruned grid for atomic number  77.
 Defaulting to unpruned grid for atomic number  77.
 Defaulting to unpruned grid for atomic number  77.
 Defaulting to unpruned grid for atomic number  77.
 Defaulting to unpruned grid for atomic number  77.
 Defaulting to unpruned grid for atomic number  77.
 Defaulting to unpruned grid for atomic number  77.
 Defaulting to unpruned grid for atomic number  77.
 Defaulting to unpruned grid for atomic number  77.
 Defaulting to unpruned grid for atomic number  77.
 Defaulting to unpruned grid for atomic number  77.
 Defaulting to unpruned grid for atomic number  77.
          There are   207 degrees of freedom in the 1st order CPHF.  IDoFFX=6 NUNeed=     3.
    204 vectors produced by pass  0 Test12= 6.93D-14 1.00D-09 XBig12= 4.47D+02 8.27D+00.
 AX will form    72 AO Fock derivatives at one time.
    204 vectors produced by pass  1 Test12= 6.93D-14 1.00D-09 XBig12= 1.11D+02 1.80D+00.
    204 vectors produced by pass  2 Test12= 6.93D-14 1.00D-09 XBig12= 2.29D+00 2.31D-01.
    204 vectors produced by pass  3 Test12= 6.93D-14 1.00D-09 XBig12= 1.90D-02 1.51D-02.
    204 vectors produced by pass  4 Test12= 6.93D-14 1.00D-09 XBig12= 7.68D-05 7.38D-04.
    195 vectors produced by pass  5 Test12= 6.93D-14 1.00D-09 XBig12= 1.90D-07 2.91D-05.
     70 vectors produced by pass  6 Test12= 6.93D-14 1.00D-09 XBig12= 3.44D-10 1.87D-06.
      4 vectors produced by pass  7 Test12= 6.93D-14 1.00D-09 XBig12= 5.35D-13 6.36D-08.
      3 vectors produced by pass  8 Test12= 6.93D-14 1.00D-09 XBig12= 8.19D-16 2.34D-09.
 InvSVY:  IOpt=1 It=  1 EMax= 5.46D-15
 Solved reduced A of dimension  1292 with   207 vectors.
 Isotropic polarizability for W=    0.000000      352.52 Bohr**3.
 End of Minotr F.D. properties file   721 does not exist.
 End of Minotr F.D. properties file   722 does not exist.
 End of Minotr F.D. properties file   788 does not exist.

 **********************************************************************

            Population analysis using the SCF Density.

 **********************************************************************

 Orbital symmetries:
       Occupied  (A) (A) (A) (A) (A) (A) (A) (A) (A) (A) (A) (A)
                 (A) (A) (A) (A) (A) (A) (A) (A) (A) (A) (A) (A)
                 (A) (A) (A) (A) (A) (A) (A) (A) (A) (A) (A) (A)
                 (A) (A) (A) (A) (A) (A) (A) (A) (A) (A) (A) (A)
                 (A) (A) (A) (A) (A) (A) (A) (A) (A) (A) (A) (A)
                 (A) (A) (A) (A) (A) (A) (A) (A) (A) (A) (A) (A)
                 (A) (A) (A) (A) (A) (A) (A) (A) (A) (A) (A) (A)
                 (A) (A) (A) (A) (A) (A) (A) (A) (A) (A) (A) (A)
                 (A) (A) (A) (A) (A) (A) (A) (A) (A) (A) (A) (A)
                 (A) (A) (A) (A) (A) (A) (A) (A) (A) (A) (A) (A)
                 (A) (A) (A) (A) (A) (A) (A) (A) (A) (A) (A) (A)
                 (A) (A) (A) (A) (A) (A) (A) (A) (A) (A) (A) (A)
                 (A) (A) (A) (A) (A) (A)
       Virtual   (A) (A) (A) (A) (A) (A) (A) (A) (A) (A) (A) (A)
                 (A) (A) (A) (A) (A) (A) (A) (A) (A) (A) (A) (A)
                 (A) (A) (A) (A) (A) (A) (A) (A) (A) (A) (A) (A)
                 (A) (A) (A) (A) (A) (A) (A) (A) (A) (A) (A) (A)
                 (A) (A) (A) (A) (A) (A) (A) (A) (A) (A) (A) (A)
                 (A) (A) (A) (A) (A) (A) (A) (A) (A) (A) (A) (A)
                 (A) (A) (A) (A) (A) (A) (A) (A) (A) (A) (A) (A)
                 (A) (A) (A) (A) (A) (A) (A) (A) (A) (A) (A) (A)
                 (A) (A) (A) (A) (A) (A) (A) (A) (A) (A) (A) (A)
                 (A) (A) (A) (A) (A) (A) (A) (A) (A) (A) (A) (A)
                 (A) (A) (A) (A) (A) (A) (A) (A) (A) (A) (A) (A)
                 (A) (A) (A) (A) (A) (A) (A) (A) (A) (A) (A) (A)
                 (A) (A) (A) (A) (A) (A) (A) (A) (A) (A) (A) (A)
                 (A) (A) (A) (A) (A) (A) (A) (A) (A) (A) (A) (A)
                 (A) (A) (A) (A) (A) (A) (A) (A) (A) (A) (A) (A)
                 (A) (A) (A) (A) (A) (A) (A) (A) (A) (A) (A) (A)
                 (A) (A) (A) (A) (A) (A) (A) (A) (A) (A) (A) (A)
                 (A) (A) (A) (A) (A) (A) (A) (A) (A) (A) (A) (A)
                 (A) (A) (A) (A) (A) (A) (A) (A) (A) (A) (A) (A)
                 (A) (A) (A) (A) (A) (A) (A) (A) (A) (A) (A) (A)
                 (A) (A) (A) (A) (A) (A) (A) (A) (A) (A) (A) (A)
                 (A) (A) (A) (A) (A) (A) (A) (A) (A) (A) (A) (A)
                 (A) (A) (A) (A) (A) (A) (A) (A) (A) (A) (A) (A)
                 (A) (A) (A) (A) (A) (A) (A) (A) (A) (A) (A) (A)
                 (A) (A) (A) (A) (A) (A) (A) (A) (A) (A) (A) (A)
                 (A) (A) (A) (A) (A) (A) (A) (A) (A) (A) (A) (A)
                 (A) (A) (A) (A) (A) (A) (A) (A) (A) (A) (A) (A)
                 (A) (A) (A) (A) (A) (A) (A) (A) (A) (A) (A) (A)
                 (A) (A) (A) (A) (A) (A) (A) (A) (A) (A) (A) (A)
                 (A) (A) (A) (A) (A) (A) (A) (A) (A) (A) (A) (A)
                 (A) (A) (A) (A) (A) (A) (A) (A) (A) (A) (A) (A)
                 (A) (A) (A) (A) (A) (A) (A) (A) (A) (A) (A) (A)
                 (A) (A) (A) (A) (A) (A) (A) (A) (A) (A) (A) (A)
                 (A) (A) (A) (A) (A) (A) (A) (A) (A) (A) (A) (A)
                 (A) (A) (A) (A) (A) (A) (A) (A) (A) (A) (A) (A)
                 (A) (A) (A) (A) (A) (A) (A) (A) (A) (A) (A) (A)
                 (A) (A) (A) (A) (A) (A) (A) (A) (A) (A) (A) (A)
                 (A) (A) (A) (A) (A) (A) (A) (A) (A) (A) (A) (A)
                 (A) (A) (A) (A) (A) (A)
 The electronic state is 1-A.
 Alpha  occ. eigenvalues --  -24.84177 -24.83590 -24.83409 -24.81907 -24.81347
 Alpha  occ. eigenvalues --  -24.81241 -19.22266 -19.22040 -19.21791 -19.21511
 Alpha  occ. eigenvalues --  -14.46940 -14.41403 -10.52355 -10.49872 -10.33695
 Alpha  occ. eigenvalues --  -10.33161 -10.31050 -10.30766 -10.30596 -10.30545
 Alpha  occ. eigenvalues --  -10.30478 -10.30353 -10.29628 -10.29166 -10.28897
 Alpha  occ. eigenvalues --  -10.27635 -10.27481 -10.26639 -10.23850 -10.23822
 Alpha  occ. eigenvalues --  -10.23600 -10.23412 -10.23402 -10.23396 -10.22862
 Alpha  occ. eigenvalues --  -10.22847  -6.81874  -6.81837  -3.64121  -2.07203
 Alpha  occ. eigenvalues --   -2.06421  -2.04944  -1.36680  -1.34370  -1.28222
 Alpha  occ. eigenvalues --   -1.27596  -1.25887  -1.25336  -1.07838  -1.07539
 Alpha  occ. eigenvalues --   -1.01331  -1.00988  -1.00778  -0.96693  -0.87375
 Alpha  occ. eigenvalues --   -0.84381  -0.82946  -0.81673  -0.81459  -0.79283
 Alpha  occ. eigenvalues --   -0.75990  -0.75872  -0.75154  -0.71898  -0.71428
 Alpha  occ. eigenvalues --   -0.71207  -0.69259  -0.68611  -0.68438  -0.68409
 Alpha  occ. eigenvalues --   -0.64661  -0.64279  -0.62992  -0.62620  -0.62530
 Alpha  occ. eigenvalues --   -0.62369  -0.61499  -0.60362  -0.60154  -0.57435
 Alpha  occ. eigenvalues --   -0.56232  -0.56016  -0.55781  -0.55118  -0.54295
 Alpha  occ. eigenvalues --   -0.54265  -0.50294  -0.50061  -0.49624  -0.48952
 Alpha  occ. eigenvalues --   -0.48840  -0.48310  -0.47924  -0.47840  -0.47567
 Alpha  occ. eigenvalues --   -0.47425  -0.47381  -0.47310  -0.46982  -0.45811
 Alpha  occ. eigenvalues --   -0.45719  -0.45602  -0.45362  -0.44710  -0.44529
 Alpha  occ. eigenvalues --   -0.44185  -0.43897  -0.43821  -0.42652  -0.42193
 Alpha  occ. eigenvalues --   -0.41938  -0.41725  -0.41690  -0.41322  -0.41024
 Alpha  occ. eigenvalues --   -0.40892  -0.40576  -0.40437  -0.40317  -0.40246
 Alpha  occ. eigenvalues --   -0.40017  -0.39802  -0.38576  -0.38406  -0.38064
 Alpha  occ. eigenvalues --   -0.37473  -0.37375  -0.37220  -0.36878  -0.36092
 Alpha  occ. eigenvalues --   -0.35972  -0.35832  -0.35068  -0.34845  -0.33712
 Alpha  occ. eigenvalues --   -0.33577  -0.33151  -0.32699  -0.31764  -0.31461
 Alpha  occ. eigenvalues --   -0.30966  -0.30411  -0.29684  -0.28168  -0.27828
 Alpha  occ. eigenvalues --   -0.27733  -0.27417  -0.24360  -0.23172  -0.21514
 Alpha virt. eigenvalues --   -0.08538  -0.05854  -0.05087  -0.02748   0.00251
 Alpha virt. eigenvalues --    0.00829   0.01429   0.03097   0.04470   0.05605
 Alpha virt. eigenvalues --    0.07106   0.09290   0.09565   0.10179   0.10705
 Alpha virt. eigenvalues --    0.10999   0.12549   0.12782   0.13076   0.13218
 Alpha virt. eigenvalues --    0.14121   0.14396   0.14628   0.14665   0.14964
 Alpha virt. eigenvalues --    0.15170   0.15616   0.15717   0.15735   0.16300
 Alpha virt. eigenvalues --    0.16438   0.16676   0.16771   0.16922   0.17561
 Alpha virt. eigenvalues --    0.17789   0.18438   0.18589   0.18810   0.19122
 Alpha virt. eigenvalues --    0.19607   0.19874   0.20511   0.21498   0.21914
 Alpha virt. eigenvalues --    0.22021   0.22219   0.22719   0.22796   0.23085
 Alpha virt. eigenvalues --    0.23583   0.23744   0.23996   0.24315   0.24443
 Alpha virt. eigenvalues --    0.24627   0.25176   0.25366   0.25705   0.26078
 Alpha virt. eigenvalues --    0.26571   0.26769   0.27620   0.27817   0.27980
 Alpha virt. eigenvalues --    0.29401   0.29463   0.30711   0.31078   0.32173
 Alpha virt. eigenvalues --    0.32848   0.33091   0.33757   0.34682   0.35227
 Alpha virt. eigenvalues --    0.36101   0.37264   0.38252   0.39046   0.40266
 Alpha virt. eigenvalues --    0.40910   0.43083   0.44390   0.44929   0.46245
 Alpha virt. eigenvalues --    0.47698   0.48442   0.48875   0.49142   0.50016
 Alpha virt. eigenvalues --    0.50106   0.50237   0.50722   0.51042   0.51755
 Alpha virt. eigenvalues --    0.52358   0.52587   0.53263   0.53633   0.53994
 Alpha virt. eigenvalues --    0.54560   0.55480   0.55963   0.56441   0.56539
 Alpha virt. eigenvalues --    0.57088   0.57158   0.57475   0.58034   0.58262
 Alpha virt. eigenvalues --    0.58475   0.59154   0.59525   0.59944   0.60489
 Alpha virt. eigenvalues --    0.60981   0.61457   0.61745   0.62292   0.62512
 Alpha virt. eigenvalues --    0.63574   0.63648   0.64157   0.64947   0.65646
 Alpha virt. eigenvalues --    0.66389   0.66899   0.67110   0.67691   0.68115
 Alpha virt. eigenvalues --    0.68703   0.69269   0.69400   0.70189   0.70687
 Alpha virt. eigenvalues --    0.71073   0.71476   0.71793   0.72232   0.72352
 Alpha virt. eigenvalues --    0.72757   0.73389   0.73776   0.74266   0.75217
 Alpha virt. eigenvalues --    0.75882   0.76586   0.76691   0.77432   0.78083
 Alpha virt. eigenvalues --    0.79650   0.80004   0.80389   0.80495   0.81012
 Alpha virt. eigenvalues --    0.82356   0.82907   0.83669   0.83838   0.84285
 Alpha virt. eigenvalues --    0.84595   0.84923   0.85243   0.85652   0.86365
 Alpha virt. eigenvalues --    0.86659   0.87115   0.87454   0.87786   0.88371
 Alpha virt. eigenvalues --    0.88495   0.88669   0.89441   0.89695   0.89927
 Alpha virt. eigenvalues --    0.90159   0.90786   0.90969   0.91567   0.92163
 Alpha virt. eigenvalues --    0.92697   0.93575   0.93772   0.94204   0.94517
 Alpha virt. eigenvalues --    0.95177   0.95728   0.96163   0.96599   0.97547
 Alpha virt. eigenvalues --    0.98094   0.98499   0.99319   0.99963   1.00521
 Alpha virt. eigenvalues --    1.01046   1.02474   1.02721   1.03141   1.04036
 Alpha virt. eigenvalues --    1.04475   1.06850   1.07103   1.07969   1.09333
 Alpha virt. eigenvalues --    1.09815   1.11663   1.11954   1.12300   1.13034
 Alpha virt. eigenvalues --    1.13646   1.14739   1.15035   1.15970   1.16398
 Alpha virt. eigenvalues --    1.17203   1.17367   1.17700   1.18672   1.19195
 Alpha virt. eigenvalues --    1.19402   1.19859   1.20526   1.21468   1.22090
 Alpha virt. eigenvalues --    1.22716   1.22940   1.24822   1.25640   1.26087
 Alpha virt. eigenvalues --    1.26385   1.27305   1.28109   1.29013   1.29965
 Alpha virt. eigenvalues --    1.30977   1.32593   1.32795   1.33041   1.33542
 Alpha virt. eigenvalues --    1.34065   1.35264   1.35641   1.35739   1.36012
 Alpha virt. eigenvalues --    1.36954   1.37220   1.38054   1.38390   1.39680
 Alpha virt. eigenvalues --    1.40260   1.40382   1.40581   1.41010   1.41543
 Alpha virt. eigenvalues --    1.42031   1.42394   1.43424   1.44263   1.45316
 Alpha virt. eigenvalues --    1.46350   1.46714   1.46909   1.48083   1.48629
 Alpha virt. eigenvalues --    1.50379   1.51481   1.51990   1.53818   1.55014
 Alpha virt. eigenvalues --    1.55957   1.56398   1.57526   1.57922   1.59773
 Alpha virt. eigenvalues --    1.61982   1.62794   1.63227   1.63740   1.64855
 Alpha virt. eigenvalues --    1.65630   1.65956   1.66573   1.67597   1.68171
 Alpha virt. eigenvalues --    1.68726   1.69901   1.70360   1.71449   1.72246
 Alpha virt. eigenvalues --    1.72457   1.73952   1.74382   1.74909   1.75559
 Alpha virt. eigenvalues --    1.76450   1.77566   1.78197   1.78435   1.79020
 Alpha virt. eigenvalues --    1.79659   1.79858   1.80210   1.80643   1.81718
 Alpha virt. eigenvalues --    1.82199   1.82841   1.84120   1.84681   1.85474
 Alpha virt. eigenvalues --    1.85793   1.86242   1.86606   1.86841   1.87616
 Alpha virt. eigenvalues --    1.89053   1.89258   1.89929   1.90106   1.90827
 Alpha virt. eigenvalues --    1.91303   1.91604   1.91974   1.92400   1.92932
 Alpha virt. eigenvalues --    1.93181   1.94187   1.94943   1.95917   1.96488
 Alpha virt. eigenvalues --    1.97500   1.97620   2.00102   2.00840   2.01133
 Alpha virt. eigenvalues --    2.01484   2.02098   2.02343   2.03276   2.03569
 Alpha virt. eigenvalues --    2.03765   2.04256   2.05291   2.05568   2.05880
 Alpha virt. eigenvalues --    2.06246   2.06442   2.06881   2.07584   2.08343
 Alpha virt. eigenvalues --    2.08789   2.08975   2.09588   2.10127   2.10276
 Alpha virt. eigenvalues --    2.11052   2.11161   2.11669   2.12837   2.13200
 Alpha virt. eigenvalues --    2.13606   2.14083   2.14435   2.14996   2.15596
 Alpha virt. eigenvalues --    2.16299   2.16393   2.17437   2.18326   2.18394
 Alpha virt. eigenvalues --    2.19179   2.19535   2.20104   2.20707   2.21151
 Alpha virt. eigenvalues --    2.21507   2.22226   2.22958   2.23236   2.23725
 Alpha virt. eigenvalues --    2.24782   2.25567   2.25804   2.26916   2.29135
 Alpha virt. eigenvalues --    2.30069   2.30581   2.30837   2.31605   2.31763
 Alpha virt. eigenvalues --    2.31921   2.32471   2.32789   2.33631   2.34849
 Alpha virt. eigenvalues --    2.37611   2.37999   2.39110   2.42288   2.43398
 Alpha virt. eigenvalues --    2.44212   2.45129   2.45806   2.46623   2.47226
 Alpha virt. eigenvalues --    2.47530   2.49279   2.49864   2.50238   2.50689
 Alpha virt. eigenvalues --    2.52535   2.58230   2.58555   2.58826   2.60234
 Alpha virt. eigenvalues --    2.61528   2.61672   2.62783   2.63686   2.63935
 Alpha virt. eigenvalues --    2.64302   2.68813   2.72347   2.74261   2.75793
 Alpha virt. eigenvalues --    2.75987   2.76342   2.76651   2.77909   2.78066
 Alpha virt. eigenvalues --    2.79128   2.79393   2.80417   2.80699   2.81428
 Alpha virt. eigenvalues --    2.82876   2.84173   2.86329   2.86914   2.88545
 Alpha virt. eigenvalues --    2.88645   2.89635   2.91252   2.92753   2.94542
 Alpha virt. eigenvalues --    2.94995   3.00827   3.02400   3.04409   3.05239
 Alpha virt. eigenvalues --    3.06675   3.07268   3.08505   3.08906   3.11165
 Alpha virt. eigenvalues --    3.12206   3.13759   3.15808   3.25118   3.33354
 Alpha virt. eigenvalues --    3.42561   9.18205
          Condensed to atoms (all electrons):
 Mulliken charges:
               1
     1  C   -0.024073
     2  C   -0.059737
     3  C   -0.159518
     4  C   -0.137498
     5  C   -0.185114
     6  C   -0.140975
     7  C   -0.083408
     8  C    0.024974
     9  H    0.214982
    10  C    0.337438
    11  C    0.169587
    12  C    0.288246
    13  C    0.292209
    14  C   -0.514371
    15  H    0.177347
    16  H    0.155894
    17  H    0.175736
    18  C   -0.505881
    19  H    0.174534
    20  H    0.156948
    21  H    0.163611
    22  C   -0.512713
    23  H    0.177446
    24  H    0.152056
    25  H    0.173489
    26  C   -0.506077
    27  H    0.169438
    28  H    0.150963
    29  H    0.172563
    30  B    0.392994
    31  N   -0.429031
    32  N   -0.587599
    33  O   -0.517477
    34  O   -0.496014
    35  Ir   0.362778
    36  B    0.413038
    37  O   -0.503645
    38  O   -0.530133
    39  C    0.289608
    40  C    0.290593
    41  C   -0.503611
    42  C   -0.511767
    43  C   -0.507717
    44  C   -0.514665
    45  H    0.174752
    46  H    0.148852
    47  H    0.175725
    48  H    0.174744
    49  H    0.152984
    50  H    0.173822
    51  H    0.177068
    52  H    0.157034
    53  H    0.165037
    54  H    0.178810
    55  H    0.156015
    56  H    0.178183
    57  H    0.179044
    58  H    0.198477
    59  H    0.213918
    60  H    0.206868
    61  C    0.957170
    62  F   -0.315869
    63  F   -0.317864
    64  F   -0.314928
    65  C    0.966939
    66  F   -0.307106
    67  F   -0.311034
    68  F   -0.314093
 Sum of Mulliken charges =  -0.00000
 Mulliken charges with hydrogens summed into heavy atoms:
               1
     1  C    0.154971
     2  C   -0.059737
     3  C    0.038959
     4  C   -0.137498
     5  C    0.028804
     6  C    0.065892
     7  C   -0.083408
     8  C    0.239956
    10  C    0.337438
    11  C    0.169587
    12  C    0.288246
    13  C    0.292209
    14  C   -0.005394
    18  C   -0.010788
    22  C   -0.009721
    26  C   -0.013113
    30  B    0.392994
    31  N   -0.429031
    32  N   -0.587599
    33  O   -0.517477
    34  O   -0.496014
    35  Ir   0.362778
    36  B    0.413038
    37  O   -0.503645
    38  O   -0.530133
    39  C    0.289608
    40  C    0.290593
    41  C   -0.004282
    42  C   -0.010218
    43  C   -0.008577
    44  C   -0.001657
    61  C    0.957170
    62  F   -0.315869
    63  F   -0.317864
    64  F   -0.314928
    65  C    0.966939
    66  F   -0.307106
    67  F   -0.311034
    68  F   -0.314093
 APT charges:
               1
     1  C   -0.042825
     2  C   -0.085821
     3  C    0.030656
     4  C    0.120327
     5  C   -0.360631
     6  C    0.250981
     7  C   -0.338073
     8  C    0.180823
     9  H    0.062442
    10  C    0.540518
    11  C   -0.125541
    12  C    0.506516
    13  C    0.513778
    14  C   -0.033302
    15  H    0.003976
    16  H   -0.016781
    17  H    0.004448
    18  C   -0.012327
    19  H    0.004247
    20  H   -0.016679
    21  H    0.001629
    22  C   -0.011804
    23  H    0.006687
    24  H   -0.012010
    25  H    0.001267
    26  C   -0.038712
    27  H    0.014584
    28  H   -0.018514
    29  H    0.009651
    30  B    1.228088
    31  N   -0.304131
    32  N   -0.439176
    33  O   -1.048279
    34  O   -0.942073
    35  Ir  -0.206020
    36  B    1.263156
    37  O   -1.068703
    38  O   -0.998618
    39  C    0.531556
    40  C    0.520826
    41  C   -0.033534
    42  C   -0.013640
    43  C   -0.012502
    44  C   -0.044886
    45  H    0.015157
    46  H   -0.022466
    47  H    0.002864
    48  H   -0.000026
    49  H   -0.014648
    50  H    0.002095
    51  H    0.009008
    52  H   -0.013701
    53  H   -0.001679
    54  H    0.005479
    55  H   -0.014112
    56  H    0.009825
    57  H    0.012302
    58  H    0.107152
    59  H    0.093954
    60  H    0.069953
    61  C    1.813627
    62  F   -0.615814
    63  F   -0.606025
    64  F   -0.535327
    65  C    1.913616
    66  F   -0.611583
    67  F   -0.591183
    68  F   -0.600044
 Sum of APT charges =   0.00000
 APT charges with hydrogens summed into heavy atoms:
               1
     1  C   -0.030523
     2  C   -0.085821
     3  C    0.137808
     4  C    0.120327
     5  C   -0.266677
     6  C    0.320934
     7  C   -0.338073
     8  C    0.243265
    10  C    0.540518
    11  C   -0.125541
    12  C    0.506516
    13  C    0.513778
    14  C   -0.041658
    18  C   -0.023129
    22  C   -0.015860
    26  C   -0.032991
    30  B    1.228088
    31  N   -0.304131
    32  N   -0.439176
    33  O   -1.048279
    34  O   -0.942073
    35  Ir  -0.206020
    36  B    1.263156
    37  O   -1.068703
    38  O   -0.998618
    39  C    0.531556
    40  C    0.520826
    41  C   -0.037978
    42  C   -0.026219
    43  C   -0.018874
    44  C   -0.043692
    61  C    1.813627
    62  F   -0.615814
    63  F   -0.606025
    64  F   -0.535327
    65  C    1.913616
    66  F   -0.611583
    67  F   -0.591183
    68  F   -0.600044
 Electronic spatial extent (au):  <R**2>=          22147.7513
 Charge=              0.0000 electrons
 Dipole moment (field-independent basis, Debye):
    X=             -0.4904    Y=             -1.7655    Z=              0.2143  Tot=              1.8448
 Quadrupole moment (field-independent basis, Debye-Ang):
   XX=           -224.5613   YY=           -245.9445   ZZ=           -231.2626
   XY=            -17.9888   XZ=              0.4075   YZ=              0.4318
 Traceless Quadrupole moment (field-independent basis, Debye-Ang):
   XX=              9.3615   YY=            -12.0217   ZZ=              2.6602
   XY=            -17.9888   XZ=              0.4075   YZ=              0.4318
 Octapole moment (field-independent basis, Debye-Ang**2):
  XXX=            -83.6950  YYY=            -65.6066  ZZZ=              2.3678  XYY=            -64.3618
  XXY=             14.8262  XXZ=             -0.0483  XZZ=              7.7941  YZZ=            -32.9600
  YYZ=             -0.5441  XYZ=              8.9904
 Hexadecapole moment (field-independent basis, Debye-Ang**3):
 XXXX=         -14657.1638 YYYY=          -7663.6183 ZZZZ=          -4819.1707 XXXY=            -90.0362
 XXXZ=            -11.3343 YYYX=            244.7794 YYYZ=             -8.5816 ZZZX=            -15.2174
 ZZZY=            -30.1001 XXYY=          -3679.8823 XXZZ=          -3145.5150 YYZZ=          -2085.0794
 XXYZ=             14.3397 YYXZ=            -18.3062 ZZXY=             62.0937
 N-N= 5.124956551723D+03 E-N=-1.513358068413D+04  KE= 2.011982467549D+03
  Exact polarizability:     431.375      -9.881     362.792      -1.635      -2.888     263.383
 Approx polarizability:     595.330      12.292     575.689      -5.149      -7.225     376.901
   1 Symmetry operations used in ECPInt.
 ECPInt:  NShTT=   23871 NPrTT=  152307 LenC2=   17979 LenP2D=   60011.
 LDataN:  DoStor=T MaxTD1= 8 Len=  415
 Calling FoFJK, ICntrl=    100127 FMM=F ISym2X=0 I1Cent= 0 IOpClX= 0 NMat=1 NMatS=1 NMatT=0.
 Defaulting to unpruned grid for atomic number  77.
 Defaulting to unpruned grid for atomic number  77.
 Defaulting to unpruned grid for atomic number  77.
 Defaulting to unpruned grid for atomic number  77.
 Defaulting to unpruned grid for atomic number  77.
 Defaulting to unpruned grid for atomic number  77.
 Defaulting to unpruned grid for atomic number  77.
 Defaulting to unpruned grid for atomic number  77.
 Defaulting to unpruned grid for atomic number  77.
 Defaulting to unpruned grid for atomic number  77.
 Defaulting to unpruned grid for atomic number  77.
 Defaulting to unpruned grid for atomic number  77.
 Defaulting to unpruned grid for atomic number  77.
 Defaulting to unpruned grid for atomic number  77.
 Defaulting to unpruned grid for atomic number  77.
 Defaulting to unpruned grid for atomic number  77.
 Full mass-weighted force constant matrix:
 Low frequencies ---    0.0004    0.0006    0.0008    0.9602    4.0388    5.5924
 Low frequencies ---   15.3686   24.9288   28.5300
 Diagonal vibrational polarizability:
       73.2584877      44.9341713      66.3788173
 Harmonic frequencies (cm**-1), IR intensities (KM/Mole), Raman scattering
 activities (A**4/AMU), depolarization ratios for plane and unpolarized
 incident light, reduced masses (AMU), force constants (mDyne/A),
 and normal coordinates:
                      1                      2                      3
                      A                      A                      A
 Frequencies --     15.3337                24.8628                28.4299
 Red. masses --      7.2867                 6.9741                10.3288
 Frc consts  --      0.0010                 0.0025                 0.0049
 IR Inten    --      0.0488                 0.0282                 0.3151
  Atom AN      X      Y      Z        X      Y      Z        X      Y      Z
     1   6    -0.01   0.00   0.00    -0.00   0.02   0.10    -0.00  -0.01  -0.18
     2   6    -0.00   0.01   0.02    -0.00   0.02   0.04     0.00   0.00  -0.04
     3   6    -0.00   0.01   0.04    -0.00   0.01  -0.03     0.00   0.01   0.02
     4   6     0.00   0.01   0.05     0.00   0.01  -0.03     0.00   0.00  -0.04
     5   6    -0.00  -0.00  -0.06     0.00   0.00   0.07    -0.01  -0.01  -0.27
     6   6    -0.00  -0.01  -0.10     0.00  -0.00   0.07    -0.00  -0.01  -0.21
     7   6    -0.00  -0.01  -0.09     0.01  -0.00   0.01     0.00  -0.00  -0.05
     8   6     0.00  -0.00  -0.02     0.01  -0.00  -0.03     0.00   0.00   0.01
     9   1     0.01  -0.00  -0.01     0.01  -0.00  -0.07     0.01   0.01   0.12
    10   6    -0.00  -0.00  -0.00     0.00   0.00   0.03    -0.00  -0.00  -0.17
    11   6    -0.00   0.00   0.02     0.00   0.01   0.03    -0.00  -0.00  -0.16
    12   6     0.10   0.01  -0.01    -0.01   0.07   0.00     0.01  -0.03  -0.01
    13   6     0.10   0.01  -0.04    -0.01   0.07  -0.04     0.03  -0.03  -0.00
    14   6     0.14   0.02   0.02    -0.02   0.11   0.01     0.02  -0.03  -0.01
    15   1     0.15   0.03   0.05    -0.02   0.12  -0.02     0.02  -0.02   0.00
    16   1     0.18   0.03  -0.00    -0.03   0.14   0.01     0.02  -0.04  -0.01
    17   1     0.13   0.02   0.04    -0.03   0.11   0.04     0.01  -0.03  -0.01
    18   6     0.09   0.00  -0.05    -0.02   0.06   0.04     0.00  -0.04  -0.03
    19   1     0.08   0.00  -0.04    -0.03   0.06   0.06    -0.01  -0.04  -0.03
    20   1     0.12   0.00  -0.08    -0.03   0.08   0.04     0.01  -0.06  -0.03
    21   1     0.06  -0.01  -0.08    -0.01   0.03   0.04    -0.00  -0.04  -0.03
    22   6     0.16   0.01  -0.05    -0.01   0.11  -0.07     0.04  -0.04   0.00
    23   1     0.16   0.01  -0.06    -0.00   0.10  -0.10     0.05  -0.04   0.01
    24   1     0.18   0.01  -0.08    -0.01   0.12  -0.05     0.04  -0.06  -0.01
    25   1     0.18   0.02  -0.01    -0.01   0.13  -0.07     0.04  -0.04   0.01
    26   6     0.07  -0.01  -0.08    -0.00   0.03  -0.05     0.02  -0.04  -0.01
    27   1     0.03  -0.01  -0.08    -0.00   0.01  -0.04     0.01  -0.02  -0.01
    28   1     0.09  -0.02  -0.12    -0.00   0.04  -0.04     0.02  -0.06  -0.02
    29   1     0.08  -0.01  -0.09     0.01   0.03  -0.08     0.04  -0.04   0.01
    30   5     0.05   0.01   0.03    -0.00   0.03  -0.04     0.01  -0.00   0.00
    31   7    -0.01   0.00   0.00    -0.00   0.01   0.09    -0.01  -0.01  -0.24
    32   7     0.00   0.00   0.02     0.01   0.00  -0.03     0.00   0.00  -0.04
    33   8     0.05   0.01   0.02    -0.01   0.04   0.00     0.00  -0.01  -0.01
    34   8     0.08   0.01   0.00     0.00   0.05  -0.06     0.03  -0.02   0.01
    35  77     0.00   0.01   0.08     0.01   0.01  -0.05    -0.00   0.01   0.02
    36   5    -0.04  -0.01   0.04     0.01  -0.03  -0.03    -0.01   0.00   0.01
    37   8    -0.06  -0.02   0.07    -0.00  -0.06   0.04    -0.01   0.01   0.01
    38   8    -0.06  -0.00  -0.03     0.01  -0.04  -0.07    -0.02   0.01  -0.01
    39   6    -0.09  -0.02   0.01    -0.01  -0.10   0.05    -0.02   0.01  -0.02
    40   6    -0.10  -0.02  -0.05    -0.00  -0.11  -0.03    -0.03   0.02  -0.02
    41   6    -0.03  -0.00  -0.01    -0.01  -0.05   0.09    -0.00   0.01  -0.03
    42   6    -0.15  -0.05   0.04    -0.02  -0.18   0.09    -0.04   0.02  -0.02
    43   6    -0.09  -0.01  -0.12    -0.00  -0.11  -0.04    -0.03   0.03  -0.05
    44   6    -0.17  -0.05  -0.04     0.00  -0.19  -0.08    -0.06   0.02  -0.01
    45   1     0.01   0.02  -0.02     0.01  -0.00   0.06     0.01   0.01  -0.03
    46   1    -0.05  -0.00  -0.05    -0.01  -0.08   0.10    -0.01   0.02  -0.05
    47   1    -0.02  -0.00   0.04    -0.01  -0.04   0.15     0.01   0.01  -0.03
    48   1    -0.14  -0.05   0.08    -0.03  -0.16   0.15    -0.03   0.02  -0.01
    49   1    -0.17  -0.06  -0.01    -0.03  -0.21   0.09    -0.05   0.02  -0.03
    50   1    -0.18  -0.07   0.06    -0.02  -0.21   0.06    -0.05   0.02  -0.00
    51   1    -0.11  -0.01  -0.16     0.01  -0.12  -0.10    -0.04   0.03  -0.05
    52   1    -0.13  -0.02  -0.13    -0.01  -0.16  -0.01    -0.04   0.03  -0.06
    53   1    -0.04   0.01  -0.13    -0.00  -0.05  -0.02    -0.01   0.02  -0.05
    54   1    -0.18  -0.06   0.02     0.00  -0.19  -0.07    -0.06   0.02   0.01
    55   1    -0.21  -0.07  -0.06    -0.01  -0.25  -0.05    -0.07   0.03  -0.02
    56   1    -0.17  -0.05  -0.08     0.01  -0.18  -0.14    -0.06   0.02  -0.01
    57   1    -0.01   0.00  -0.01    -0.00   0.02   0.15    -0.00  -0.01  -0.24
    58   1     0.00   0.01   0.05    -0.00   0.01  -0.07     0.01   0.01   0.12
    59   1    -0.01  -0.01  -0.07    -0.00   0.00   0.11    -0.01  -0.02  -0.37
    60   1    -0.01  -0.01  -0.15     0.00  -0.00   0.10    -0.01  -0.01  -0.27
    61   6    -0.01   0.01   0.01    -0.01   0.03   0.10     0.00   0.02   0.09
    62   9    -0.02   0.02   0.02    -0.06   0.20   0.18     0.05   0.14   0.16
    63   9    -0.01   0.01   0.02     0.03  -0.10   0.23    -0.04  -0.08   0.19
    64   9    -0.00   0.02   0.00    -0.00   0.02  -0.05     0.00   0.01   0.07
    65   6    -0.00  -0.01  -0.15     0.01  -0.01   0.01     0.01  -0.01   0.07
    66   9     0.03   0.03  -0.18     0.01   0.01  -0.01     0.07  -0.23   0.22
    67   9    -0.03  -0.05  -0.18     0.02  -0.02  -0.01    -0.02   0.20   0.25
    68   9    -0.01  -0.02  -0.16     0.01  -0.02   0.02    -0.00   0.01  -0.11
                      4                      5                      6
                      A                      A                      A
 Frequencies --     32.7209                33.8793                37.0921
 Red. masses --      6.3512                 5.6910                 8.0691
 Frc consts  --      0.0040                 0.0038                 0.0065
 IR Inten    --      0.0531                 0.1219                 0.0913
  Atom AN      X      Y      Z        X      Y      Z        X      Y      Z
     1   6     0.02  -0.03  -0.10    -0.03   0.00  -0.10    -0.01   0.03   0.01
     2   6     0.02  -0.03  -0.05    -0.02   0.01  -0.03    -0.01   0.04   0.05
     3   6     0.01  -0.03  -0.01    -0.01   0.02   0.00     0.00   0.04   0.04
     4   6     0.01  -0.03  -0.03    -0.01   0.01  -0.02     0.01   0.03  -0.01
     5   6     0.01   0.00  -0.09    -0.02  -0.02  -0.11    -0.00  -0.00  -0.05
     6   6     0.01   0.01  -0.05    -0.01  -0.02  -0.07     0.01  -0.02  -0.02
     7   6    -0.01   0.02   0.00     0.00  -0.02   0.00     0.02  -0.01   0.00
     8   6    -0.01   0.00   0.01     0.01  -0.01   0.03     0.03  -0.00  -0.01
     9   1    -0.02   0.00   0.05     0.02  -0.01   0.08     0.04   0.00   0.00
    10   6     0.01  -0.01  -0.06    -0.01  -0.01  -0.07     0.01   0.01  -0.04
    11   6     0.01  -0.02  -0.07    -0.01   0.00  -0.07     0.00   0.02  -0.03
    12   6     0.01   0.00   0.01     0.00  -0.00   0.00    -0.04  -0.03  -0.00
    13   6    -0.04   0.01   0.05     0.05  -0.01  -0.04    -0.01  -0.04   0.02
    14   6     0.01  -0.05  -0.01     0.01   0.05   0.03    -0.08  -0.02  -0.03
    15   1    -0.01  -0.09  -0.00     0.03   0.08   0.03    -0.07  -0.01  -0.05
    16   1    -0.00  -0.06   0.00     0.03   0.06   0.01    -0.11  -0.05  -0.01
    17   1     0.05  -0.06  -0.03    -0.02   0.06   0.06    -0.10  -0.02  -0.05
    18   6     0.05   0.05   0.01    -0.03  -0.04  -0.00    -0.06  -0.06   0.02
    19   1     0.08   0.04  -0.02    -0.06  -0.03   0.03    -0.08  -0.05  -0.00
    20   1     0.03   0.05   0.02    -0.00  -0.04  -0.02    -0.09  -0.09   0.05
    21   1     0.05   0.09   0.02    -0.05  -0.09  -0.02    -0.03  -0.06   0.05
    22   6    -0.08  -0.01   0.06     0.09   0.01  -0.05    -0.02  -0.06   0.03
    23   1    -0.11   0.00   0.09     0.12   0.00  -0.08     0.01  -0.06   0.04
    24   1    -0.07   0.01   0.06     0.08  -0.00  -0.05    -0.04  -0.08   0.03
    25   1    -0.08  -0.05   0.05     0.10   0.06  -0.04    -0.03  -0.05   0.01
    26   6    -0.04   0.07   0.06     0.05  -0.07  -0.06     0.01  -0.05   0.04
    27   1    -0.03   0.10   0.05     0.03  -0.10  -0.04     0.00  -0.03   0.02
    28   1    -0.04   0.09   0.06     0.05  -0.08  -0.05    -0.00  -0.09   0.04
    29   1    -0.07   0.08   0.10     0.08  -0.08  -0.09     0.04  -0.05   0.06
    30   5    -0.01  -0.01   0.02     0.01   0.01   0.00     0.01   0.01  -0.02
    31   7     0.02  -0.02  -0.11    -0.02  -0.00  -0.12    -0.01   0.02  -0.03
    32   7    -0.00  -0.01  -0.02    -0.00  -0.00  -0.00     0.02   0.01  -0.03
    33   8     0.03  -0.00  -0.00    -0.03  -0.00   0.02    -0.02  -0.01  -0.02
    34   8    -0.05  -0.01   0.05     0.06   0.01  -0.03     0.01  -0.01   0.00
    35  77    -0.00  -0.02   0.01     0.00   0.01   0.01     0.02   0.03  -0.03
    36   5     0.00  -0.02   0.02    -0.01   0.01   0.00     0.01   0.01  -0.01
    37   8     0.06  -0.04   0.05    -0.05   0.05  -0.05     0.01  -0.04   0.07
    38   8    -0.03   0.04  -0.02     0.03  -0.04   0.06    -0.01   0.01  -0.09
    39   6     0.06   0.03   0.02    -0.05  -0.00  -0.02    -0.01  -0.05   0.04
    40   6    -0.04   0.06  -0.04     0.04  -0.03   0.06    -0.04  -0.05  -0.07
    41   6     0.15   0.10   0.02    -0.14  -0.09  -0.03     0.05   0.02   0.06
    42   6     0.06  -0.02   0.04    -0.04   0.06  -0.06    -0.05  -0.14   0.09
    43   6    -0.03   0.16  -0.11     0.04  -0.13   0.13    -0.03  -0.01  -0.14
    44   6    -0.14   0.01  -0.03     0.15   0.04   0.07    -0.11  -0.13  -0.10
    45   1     0.15   0.13   0.00    -0.15  -0.13  -0.00     0.08   0.08   0.02
    46   1     0.16   0.15  -0.01    -0.14  -0.13  -0.00     0.04   0.01   0.03
    47   1     0.22   0.06   0.06    -0.20  -0.06  -0.09     0.07   0.02   0.14
    48   1     0.13  -0.04   0.08    -0.10   0.08  -0.12    -0.03  -0.13   0.17
    49   1     0.06   0.03   0.02    -0.03   0.03  -0.03    -0.07  -0.15   0.06
    50   1     0.01  -0.07   0.05     0.01   0.13  -0.06    -0.08  -0.19   0.08
    51   1    -0.10   0.19  -0.15     0.10  -0.15   0.20    -0.05  -0.01  -0.23
    52   1    -0.03   0.18  -0.11     0.04  -0.12   0.13    -0.06  -0.05  -0.12
    53   1     0.04   0.21  -0.11    -0.03  -0.19   0.13     0.01   0.07  -0.13
    54   1    -0.15  -0.07   0.02     0.15   0.11   0.02    -0.12  -0.16  -0.05
    55   1    -0.15   0.03  -0.05     0.16   0.04   0.08    -0.14  -0.18  -0.10
    56   1    -0.21   0.04  -0.06     0.21   0.02   0.12    -0.12  -0.12  -0.19
    57   1     0.03  -0.03  -0.13    -0.03   0.00  -0.13    -0.02   0.03   0.01
    58   1     0.01  -0.03   0.02    -0.01   0.02   0.05     0.01   0.05   0.07
    59   1     0.02  -0.00  -0.13    -0.02  -0.02  -0.16    -0.02  -0.01  -0.06
    60   1     0.01   0.02  -0.06    -0.01  -0.03  -0.09     0.00  -0.03  -0.02
    61   6     0.03  -0.04  -0.00    -0.02   0.03   0.02    -0.01   0.05   0.07
    62   9     0.01   0.06   0.05     0.00   0.06   0.04     0.12  -0.14  -0.02
    63   9     0.04  -0.11   0.07    -0.06  -0.00   0.05    -0.14   0.21  -0.08
    64   9     0.02  -0.05  -0.08    -0.02   0.03   0.03    -0.01   0.10   0.33
    65   6    -0.02   0.04   0.02     0.00  -0.02   0.02     0.03  -0.03   0.04
    66   9    -0.16   0.16  -0.05    -0.11   0.10  -0.05    -0.02   0.01   0.02
    67   9     0.05  -0.07  -0.08     0.10  -0.13  -0.08     0.10  -0.06   0.00
    68   9     0.01   0.06   0.21     0.02  -0.03   0.21     0.04  -0.04   0.13
                      7                      8                      9
                      A                      A                      A
 Frequencies --     47.4379                54.4274                65.5694
 Red. masses --      3.6130                 8.1910                 4.6869
 Frc consts  --      0.0048                 0.0143                 0.0119
 IR Inten    --      0.0571                 0.7007                 0.0790
  Atom AN      X      Y      Z        X      Y      Z        X      Y      Z
     1   6     0.02  -0.01   0.01    -0.03  -0.04   0.06     0.03  -0.02   0.03
     2   6     0.01  -0.02   0.00    -0.02  -0.03   0.05     0.03  -0.03   0.03
     3   6     0.01  -0.02  -0.01    -0.01  -0.03   0.01     0.02  -0.03   0.00
     4   6     0.00  -0.01  -0.01    -0.00  -0.05  -0.01     0.02  -0.02  -0.00
     5   6     0.01  -0.01   0.02     0.01  -0.00  -0.02     0.02  -0.01  -0.02
     6   6     0.01  -0.01   0.01    -0.02   0.04  -0.02     0.02  -0.01  -0.02
     7   6     0.01  -0.01   0.01    -0.06   0.04  -0.01     0.01  -0.01  -0.01
     8   6     0.01  -0.01   0.00    -0.08  -0.01  -0.00     0.01  -0.01  -0.01
     9   1     0.01  -0.01  -0.00    -0.12  -0.01   0.00     0.01  -0.01  -0.01
    10   6     0.01  -0.01   0.01    -0.01  -0.05  -0.01     0.02  -0.01  -0.01
    11   6     0.01  -0.01   0.01    -0.01  -0.06   0.00     0.02  -0.02  -0.00
    12   6    -0.07   0.03   0.08     0.08   0.05  -0.03     0.03   0.09   0.04
    13   6     0.02   0.01  -0.02     0.07   0.05  -0.09    -0.06   0.11   0.05
    14   6    -0.13   0.17   0.08     0.13   0.10   0.02     0.03   0.04   0.02
    15   1    -0.09   0.23   0.01     0.12   0.09   0.03    -0.01  -0.01   0.01
    16   1    -0.14   0.20   0.09     0.16   0.14  -0.00     0.01   0.07   0.03
    17   1    -0.19   0.18   0.15     0.13   0.09   0.08     0.08   0.02   0.01
    18   6    -0.12  -0.05   0.17     0.08   0.06  -0.04     0.08   0.16   0.05
    19   1    -0.19  -0.03   0.24     0.09   0.06   0.01     0.15   0.14   0.09
    20   1    -0.13  -0.03   0.17     0.11   0.09  -0.06     0.08   0.23   0.04
    21   1    -0.10  -0.15   0.17     0.05   0.03  -0.06     0.06   0.17   0.04
    22   6     0.05   0.09  -0.07     0.09   0.11  -0.12    -0.13   0.12   0.05
    23   1     0.11   0.07  -0.14     0.07   0.11  -0.18    -0.20   0.13   0.05
    24   1     0.02   0.08  -0.03     0.11   0.15  -0.13    -0.12   0.18   0.07
    25   1     0.03   0.18  -0.07     0.11   0.12  -0.10    -0.14   0.07   0.03
    26   6     0.05  -0.12  -0.03     0.06   0.02  -0.12    -0.05   0.16   0.08
    27   1     0.03  -0.18  -0.00     0.03   0.01  -0.11    -0.02   0.16   0.07
    28   1     0.03  -0.14  -0.00     0.06   0.01  -0.13    -0.05   0.18   0.09
    29   1     0.10  -0.13  -0.11     0.07   0.02  -0.13    -0.08   0.16   0.10
    30   5     0.00   0.00  -0.00     0.02  -0.01  -0.02     0.00   0.02   0.01
    31   7     0.01  -0.01   0.01    -0.02  -0.06   0.03     0.03  -0.02   0.01
    32   7     0.01  -0.01   0.00    -0.05  -0.05  -0.01     0.01  -0.01  -0.01
    33   8    -0.05  -0.00   0.07     0.03   0.00   0.01     0.06   0.05   0.02
    34   8     0.05   0.02  -0.07     0.05   0.02  -0.09    -0.07   0.04   0.02
    35  77     0.00  -0.01   0.00     0.00  -0.06  -0.01     0.01  -0.02  -0.00
    36   5     0.00  -0.00  -0.00     0.01  -0.03  -0.02    -0.01  -0.02  -0.02
    37   8     0.01   0.01  -0.02     0.06  -0.04  -0.02    -0.07   0.02  -0.08
    38   8    -0.01   0.01   0.00    -0.01   0.00  -0.00     0.01  -0.05  -0.01
    39   6     0.01   0.04  -0.04     0.08  -0.00   0.01    -0.08  -0.01  -0.09
    40   6    -0.03   0.05  -0.03     0.04   0.01   0.02    -0.03  -0.03  -0.04
    41   6     0.04   0.04  -0.06     0.08   0.02   0.03    -0.11  -0.06  -0.12
    42   6     0.01   0.05  -0.05     0.14  -0.01   0.01    -0.11   0.05  -0.12
    43   6    -0.02   0.08  -0.09     0.04   0.06   0.07    -0.03  -0.09  -0.06
    44   6    -0.09   0.08  -0.00     0.07  -0.00   0.01    -0.02   0.04  -0.01
    45   1     0.02   0.03  -0.05     0.04   0.02   0.03    -0.08  -0.09  -0.11
    46   1     0.05   0.08  -0.06     0.10   0.05   0.05    -0.12  -0.09  -0.13
    47   1     0.06   0.02  -0.08     0.11  -0.00   0.01    -0.14  -0.04  -0.14
    48   1     0.03   0.04  -0.06     0.16  -0.02  -0.00    -0.15   0.05  -0.15
    49   1     0.01   0.08  -0.06     0.15   0.02   0.03    -0.12   0.03  -0.13
    50   1    -0.01   0.05  -0.04     0.14  -0.03  -0.01    -0.10   0.09  -0.09
    51   1    -0.05   0.09  -0.07     0.01   0.07   0.09     0.01  -0.10  -0.05
    52   1    -0.04   0.12  -0.12     0.08   0.08   0.07    -0.06  -0.10  -0.07
    53   1     0.02   0.06  -0.11     0.02   0.05   0.07    -0.04  -0.11  -0.06
    54   1    -0.09   0.05   0.03     0.07  -0.03  -0.03    -0.03   0.08   0.00
    55   1    -0.11   0.12  -0.03     0.11   0.01   0.03    -0.05   0.07  -0.03
    56   1    -0.12   0.08   0.02     0.04   0.01   0.01     0.01   0.03   0.03
    57   1     0.02  -0.01   0.02    -0.04  -0.04   0.09     0.04  -0.02   0.05
    58   1     0.00  -0.02  -0.02    -0.00  -0.02   0.00     0.02  -0.03  -0.01
    59   1     0.00  -0.01   0.02     0.05  -0.00  -0.02     0.02  -0.01  -0.03
    60   1     0.01  -0.01   0.02     0.00   0.07  -0.02     0.02  -0.00  -0.03
    61   6     0.02  -0.03   0.01    -0.04  -0.01   0.08     0.04  -0.03   0.04
    62   9     0.03  -0.03   0.01     0.02  -0.09   0.04     0.08  -0.07   0.03
    63   9     0.03  -0.03   0.01    -0.13   0.06   0.01     0.01  -0.00   0.02
    64   9     0.01  -0.04   0.01    -0.03   0.03   0.20     0.03  -0.03   0.11
    65   6     0.01  -0.02  -0.00    -0.12   0.11   0.00     0.01  -0.01  -0.00
    66   9     0.02  -0.01  -0.00    -0.16   0.09   0.02     0.00  -0.01   0.00
    67   9     0.01  -0.02  -0.00    -0.18   0.13   0.02     0.02  -0.00   0.00
    68   9     0.01  -0.02  -0.00    -0.08   0.19  -0.02     0.02  -0.00   0.01
                     10                     11                     12
                      A                      A                      A
 Frequencies --     74.7222                83.9115                89.7536
 Red. masses --      8.3885                 9.1068                 4.7926
 Frc consts  --      0.0276                 0.0378                 0.0227
 IR Inten    --      0.6014                 1.0033                 0.2065
  Atom AN      X      Y      Z        X      Y      Z        X      Y      Z
     1   6    -0.06  -0.02  -0.07    -0.00   0.02   0.30    -0.00   0.00   0.06
     2   6    -0.04   0.03  -0.05    -0.00   0.02   0.17    -0.00  -0.01   0.05
     3   6     0.02   0.03  -0.01     0.01   0.01   0.08    -0.01  -0.00   0.04
     4   6     0.04  -0.01   0.01     0.01   0.00   0.06    -0.01   0.00   0.04
     5   6     0.04  -0.03   0.03     0.00  -0.02  -0.22    -0.02  -0.01  -0.17
     6   6     0.03   0.00   0.02     0.00  -0.02  -0.27    -0.02  -0.02  -0.18
     7   6    -0.00   0.00   0.05    -0.00  -0.01  -0.21    -0.01  -0.01   0.06
     8   6    -0.01  -0.03   0.08    -0.00  -0.02  -0.19    -0.00   0.01   0.26
     9   1    -0.04  -0.03   0.11    -0.01  -0.02  -0.17     0.01   0.02   0.43
    10   6     0.02  -0.06   0.04     0.00  -0.02  -0.10    -0.01   0.00   0.04
    11   6     0.02  -0.05   0.01     0.01  -0.00   0.08    -0.01   0.00   0.05
    12   6    -0.04  -0.04   0.07    -0.00  -0.01   0.03    -0.01   0.01  -0.03
    13   6    -0.01  -0.04   0.09     0.01  -0.01   0.02    -0.00   0.01  -0.01
    14   6    -0.13  -0.03   0.01    -0.00   0.00   0.03    -0.08   0.02  -0.07
    15   1    -0.12  -0.00  -0.05     0.00   0.01   0.03    -0.07   0.03  -0.11
    16   1    -0.20  -0.05   0.05     0.00   0.00   0.03    -0.12   0.01  -0.04
    17   1    -0.15  -0.02  -0.03    -0.01   0.00   0.04    -0.08   0.02  -0.09
    18   6    -0.04  -0.05   0.15    -0.01  -0.02   0.03    -0.01   0.01   0.03
    19   1    -0.06  -0.05   0.15    -0.01  -0.02   0.04    -0.02   0.01   0.02
    20   1    -0.09  -0.05   0.19    -0.01  -0.02   0.03    -0.05   0.01   0.06
    21   1     0.01  -0.07   0.18    -0.01  -0.03   0.03     0.03   0.00   0.05
    22   6    -0.04  -0.06   0.11     0.03  -0.01   0.01    -0.04   0.00  -0.01
    23   1     0.00  -0.07   0.13     0.04  -0.01   0.01    -0.03   0.00   0.01
    24   1    -0.07  -0.10   0.13     0.03  -0.02   0.00    -0.06  -0.00   0.02
    25   1    -0.06  -0.05   0.07     0.03   0.00   0.02    -0.06   0.01  -0.03
    26   6     0.01  -0.04   0.12    -0.01  -0.02  -0.00     0.02   0.01   0.02
    27   1     0.04  -0.08   0.13    -0.01  -0.04   0.01     0.03   0.03   0.01
    28   1     0.00  -0.01   0.15     0.00  -0.00  -0.00     0.01  -0.00   0.03
    29   1    -0.02  -0.05   0.07    -0.02  -0.03  -0.03     0.03   0.01   0.03
    30   5     0.05  -0.01   0.02    -0.00  -0.01   0.02     0.03   0.02  -0.05
    31   7    -0.03  -0.05  -0.04     0.00   0.01   0.23    -0.00   0.01   0.05
    32   7     0.01  -0.06   0.08     0.00  -0.02  -0.14    -0.00   0.01   0.24
    33   8     0.04  -0.01   0.01    -0.00  -0.01   0.03     0.04   0.02  -0.06
    34   8     0.01  -0.02   0.06    -0.00  -0.01   0.03     0.01   0.02  -0.04
    35  77     0.07  -0.02   0.01     0.02  -0.00  -0.00     0.00   0.00   0.01
    36   5     0.06  -0.00  -0.02     0.02   0.00   0.02    -0.02   0.04  -0.08
    37   8     0.00   0.01  -0.04     0.00   0.01   0.02    -0.01   0.03  -0.06
    38   8     0.07  -0.03  -0.04     0.03  -0.01   0.02    -0.04   0.06  -0.10
    39   6    -0.02  -0.02  -0.07    -0.01  -0.00  -0.00     0.01   0.01  -0.02
    40   6     0.02  -0.04  -0.07     0.00  -0.00  -0.00     0.02   0.01  -0.04
    41   6    -0.02  -0.05  -0.09    -0.00  -0.01  -0.01    -0.02   0.04   0.03
    42   6    -0.07  -0.01  -0.07    -0.03   0.01  -0.00     0.05  -0.04   0.00
    43   6     0.02  -0.08  -0.13     0.00  -0.02  -0.03     0.01   0.01   0.04
    44   6    -0.01  -0.01  -0.05    -0.02   0.01   0.01     0.09  -0.06  -0.10
    45   1     0.02  -0.06  -0.09     0.01  -0.02  -0.01    -0.03   0.07   0.02
    46   1    -0.04  -0.07  -0.12    -0.01  -0.02  -0.03    -0.02   0.02   0.06
    47   1    -0.04  -0.03  -0.08    -0.01  -0.01  -0.01    -0.03   0.05   0.05
    48   1    -0.10   0.01  -0.07    -0.04   0.01  -0.00     0.04  -0.03   0.03
    49   1    -0.09  -0.03  -0.10    -0.04   0.00  -0.02     0.06  -0.06   0.04
    50   1    -0.08   0.02  -0.05    -0.04   0.02   0.01     0.07  -0.06  -0.04
    51   1     0.06  -0.10  -0.16     0.01  -0.02  -0.04     0.01   0.01   0.02
    52   1    -0.03  -0.11  -0.14    -0.02  -0.02  -0.05     0.05  -0.02   0.09
    53   1     0.04  -0.08  -0.13     0.02  -0.03  -0.04    -0.05   0.05   0.07
    54   1    -0.02   0.02  -0.01    -0.02   0.02   0.04     0.10  -0.05  -0.16
    55   1    -0.05  -0.01  -0.07    -0.04   0.01  -0.00     0.14  -0.11  -0.05
    56   1     0.02  -0.02  -0.05    -0.01   0.01   0.02     0.10  -0.05  -0.14
    57   1    -0.10  -0.02  -0.11    -0.01   0.02   0.42     0.01   0.00   0.07
    58   1     0.04   0.06   0.01     0.00   0.02  -0.00    -0.02  -0.01   0.02
    59   1     0.07  -0.03  -0.00     0.01  -0.02  -0.23    -0.03  -0.02  -0.34
    60   1     0.04   0.03  -0.00     0.00  -0.01  -0.31    -0.02  -0.03  -0.37
    61   6    -0.09   0.11  -0.05    -0.02   0.02  -0.01     0.01  -0.03   0.01
    62   9    -0.17   0.15  -0.03    -0.19  -0.04  -0.05    -0.00  -0.05  -0.00
    63   9    -0.14   0.08  -0.02     0.11   0.07  -0.06     0.07  -0.02  -0.00
    64   9    -0.04   0.18  -0.09    -0.00   0.03  -0.13    -0.00  -0.06  -0.01
    65   6    -0.05   0.07  -0.01    -0.01   0.01  -0.00    -0.01  -0.01   0.01
    66   9    -0.05   0.09  -0.02    -0.20  -0.08   0.07     0.02   0.02  -0.01
    67   9    -0.16   0.05  -0.01     0.12   0.09   0.06    -0.04  -0.03  -0.01
    68   9    -0.02   0.14  -0.06     0.02   0.04   0.11    -0.01  -0.01  -0.01
                     13                     14                     15
                      A                      A                      A
 Frequencies --    104.5822               116.4964               118.5924
 Red. masses --      5.7259                 6.7593                 4.7175
 Frc consts  --      0.0369                 0.0540                 0.0391
 IR Inten    --      1.2893                 2.0331                 0.1130
  Atom AN      X      Y      Z        X      Y      Z        X      Y      Z
     1   6     0.03   0.01   0.05     0.05  -0.01  -0.00    -0.02   0.01   0.04
     2   6     0.03   0.01   0.02     0.05  -0.00  -0.00    -0.03   0.01  -0.02
     3   6     0.03   0.00  -0.02     0.05  -0.01  -0.00    -0.03   0.01  -0.07
     4   6     0.03  -0.00  -0.01     0.05  -0.02   0.00    -0.03   0.01  -0.04
     5   6     0.03   0.02  -0.10     0.06   0.04   0.02    -0.03  -0.01  -0.01
     6   6     0.03   0.02  -0.10     0.06   0.05   0.01    -0.02  -0.01  -0.02
     7   6     0.04   0.03   0.06     0.05   0.04  -0.04    -0.02  -0.01   0.00
     8   6     0.04   0.04   0.19     0.04   0.03  -0.07    -0.01  -0.00   0.02
     9   1     0.04   0.04   0.31     0.03   0.02  -0.11    -0.01  -0.00   0.03
    10   6     0.03   0.03   0.03     0.05   0.02  -0.01    -0.02   0.00   0.00
    11   6     0.04   0.01   0.02     0.06  -0.00  -0.00    -0.03   0.01  -0.00
    12   6    -0.02  -0.01   0.00     0.02  -0.01  -0.04     0.02   0.02  -0.08
    13   6    -0.05  -0.00  -0.04    -0.00  -0.01  -0.05     0.04   0.02  -0.03
    14   6     0.08  -0.01   0.07    -0.11   0.01  -0.12    -0.10   0.01  -0.17
    15   1     0.07  -0.04   0.12    -0.12  -0.00  -0.23    -0.10   0.02  -0.24
    16   1     0.15   0.02   0.03    -0.21   0.03  -0.05    -0.20  -0.02  -0.11
    17   1     0.10  -0.03   0.12    -0.08   0.00  -0.13    -0.11   0.02  -0.23
    18   6    -0.01   0.01  -0.08     0.04   0.01   0.11     0.01   0.00   0.01
    19   1     0.01   0.01  -0.05     0.07   0.00   0.14    -0.01   0.01  -0.04
    20   1     0.05   0.03  -0.12    -0.04   0.07   0.16    -0.06  -0.02   0.07
    21   1    -0.07   0.02  -0.12     0.12  -0.02   0.16     0.09   0.02   0.06
    22   6    -0.02   0.03  -0.06    -0.11   0.02  -0.05    -0.05  -0.02  -0.00
    23   1    -0.06   0.04  -0.10    -0.12   0.02  -0.06    -0.00  -0.02   0.04
    24   1     0.02   0.08  -0.08    -0.15   0.05   0.02    -0.12  -0.06   0.07
    25   1     0.01   0.02  -0.02    -0.16   0.02  -0.12    -0.11  -0.00  -0.09
    26   6    -0.08   0.00  -0.08     0.04  -0.01   0.01     0.11   0.02   0.06
    27   1    -0.10  -0.02  -0.06     0.10  -0.04   0.02     0.18   0.00   0.06
    28   1    -0.07   0.03  -0.10     0.02   0.04   0.07     0.07   0.03   0.14
    29   1    -0.11  -0.00  -0.10     0.02  -0.01  -0.03     0.11   0.02   0.05
    30   5    -0.08  -0.05   0.02     0.06  -0.08  -0.09     0.07   0.05  -0.08
    31   7     0.03   0.01   0.04     0.05  -0.00   0.00    -0.02   0.01   0.04
    32   7     0.03   0.04   0.16     0.04   0.02  -0.05    -0.01   0.00   0.02
    33   8    -0.09  -0.04   0.06     0.12  -0.05  -0.10     0.10   0.05  -0.14
    34   8    -0.08  -0.03  -0.00     0.03  -0.05  -0.12     0.09   0.04  -0.09
    35  77    -0.03  -0.02  -0.03    -0.04  -0.03   0.04    -0.01   0.02   0.00
    36   5     0.02  -0.09   0.07    -0.11  -0.07  -0.04     0.04  -0.05   0.09
    37   8     0.04  -0.08   0.05    -0.04  -0.07  -0.04     0.06  -0.08   0.15
    38   8     0.04  -0.10   0.12    -0.15   0.01  -0.05     0.06  -0.06   0.11
    39   6     0.03  -0.04   0.00    -0.01  -0.01  -0.01     0.03  -0.04   0.04
    40   6    -0.00  -0.03   0.05    -0.05   0.01   0.02     0.02  -0.03   0.07
    41   6     0.07  -0.07  -0.05    -0.00  -0.01  -0.01     0.11  -0.10  -0.08
    42   6     0.02   0.02  -0.02     0.06  -0.01  -0.02    -0.10   0.05   0.01
    43   6     0.01  -0.01  -0.05    -0.07   0.08   0.16     0.03  -0.03  -0.00
    44   6    -0.11   0.05   0.12     0.04  -0.03  -0.03    -0.05   0.04   0.12
[...]
 ,0.00002648,0.00001362,-0.00001896,-0.00000826,-0.00000935,0.00000676,
 -0.00000090,-0.00001779,0.00003089,0.00002310,0.00001099,-0.00003664,-
 0.00002356,0.00000797,0.00001597,0.00001718,-0.00005473,-0.00000824,-0
 .00000184,-0.00003591,0.00001677,0.00019384,-0.00010351,-0.00010764,-0
 .00023128,0.00030101,0.00091291,-0.00088817,0.00053027,0.00011001,0.00
 024182,-0.00025276,-0.00019623,0.00021598,-0.00026187,0.00007092,0.000
 30764,-0.00001354,-0.00000624,0.02262978,-0.15236888,0.10613746,-0.010
 65402,0.17916287,-0.00062499,-0.00008868,-0.00000323,0.00012065,0.0005
 3312,-0.00000327,0.00029307,-0.00040122,-0.00002183,-0.00025063,0.0007
 3588,0.00016403,-0.00073433,0.00082769,0.00062974,-0.00278125,-0.00059
 982,-0.00104016,-0.00569606,0.01810670,-0.00819591,0.00226259,0.000915
 72,0.00011791,-0.00036563,-0.00032593,-0.00088064,0.00100616,-0.000780
 78,-0.00043174,-0.00052979,0.00031105,-0.00002582,0.00005642,-0.000009
 12,0.00004504,0.00012017,0.00002770,0.00004080,-0.00000134,0.00002409,
 -0.00000484,-0.00000577,-0.00001977,0.00000685,-0.00000681,-0.00000005
 ,-0.00001095,0.00001009,0.00000254,0.00000046,-0.00000448,0.00000402,-
 0.00000567,0.00000578,-0.00000975,-0.00000420,-0.00000869,-0.00000259,
 -0.00000400,-0.00000934,0.00000575,0.00000829,-0.00000570,-0.00000075,
 -0.00000915,0.00000833,0.00000203,0.00000343,-0.00001166,-0.00000664,-
 0.00000885,-0.00000065,0.00000309,0.00001204,-0.00001492,0.00000947,-0
 .00000590,0.00000915,-0.00000016,0.00000204,-0.00001692,-0.00000602,-0
 .00000716,0.00000983,-0.00000212,0.00000542,0.00025522,0.00001900,0.00
 023234,0.00008337,-0.00042435,0.00004616,-0.00162134,0.00103189,0.0008
 5341,-0.00022597,-0.00014532,-0.00013553,-0.00016657,-0.00003921,-0.00
 011385,0.00018884,0.00001911,-0.00025013,0.00057788,0.00038700,-0.0004
 8558,-0.00024552,-0.00039825,0.00040719,-0.00030485,-0.00015726,0.0003
 1013,0.00013313,0.00005777,-0.00010977,0.00007643,0.00009195,-0.000190
 26,-0.00003663,0.00000275,0.00002488,-0.00003114,-0.00001313,-0.000003
 21,-0.00000948,-0.00000803,0.00002902,-0.00002950,-0.00000261,0.000030
 05,0.00002228,0.00000222,0.00001062,-0.00001921,-0.00001054,-0.0000018
 9,0.00000598,-0.00000524,-0.00000996,-0.00000472,-0.00002965,-0.000010
 63,0.00000422,-0.00000986,0.00001940,-0.00000387,0.00002967,0.00001606
 ,0.00000411,-0.00000035,-0.00001050,-0.00001922,-0.00000922,0.00001211
 ,0.00001098,0.00000971,0.00000189,0.00000852,0.00000899,-0.00002283,-0
 .00001615,-0.00000579,0.00002612,0.00001376,-0.00000510,-0.00000908,-0
 .00000956,0.00003187,0.00000002,0.00000207,0.00001839,-0.00001488,-0.0
 0021274,0.00009115,0.00011285,0.00016344,-0.00031134,-0.00047527,0.000
 45736,-0.00027900,-0.00013504,-0.00012692,0.00014441,0.00013856,-0.000
 11122,0.00012129,-0.00001148,-0.00015878,0.00001090,0.00001623,-0.0282
 9602,0.10246261,-0.21779108,0.02143260,-0.15842776,0.33083665,-0.00063
 202,-0.00012523,0.00005697,0.00007142,0.00056616,0.00002564,0.00031377
 ,-0.00036770,-0.00002202,-0.00035046,0.00062809,0.00008455,-0.00140126
 ,0.00140226,-0.00090486,-0.00344629,-0.00225145,0.00158351,0.00623217,
 0.02462135,0.01844653,-0.00100122,-0.00065104,0.00051881,-0.00069696,0
 .00109614,0.00024760,0.00127478,0.00038974,0.00000477,-0.00028956,0.00
 030554,0.00004075,0.00008761,-0.00001043,0.00017665,0.00017524,0.00005
 464,0.00010174,-0.00000368,0.00000867,-0.00002692,-0.00000431,-0.00000
 432,0.00002000,-0.00001334,0.00000022,-0.00002423,0.00000712,-0.000003
 89,0.00001089,-0.00000900,0.00000197,-0.00002521,0.00000555,-0.0000117
 3,0.00000572,-0.00001844,-0.00000182,-0.00001164,0.00000471,0.00000411
 ,0.00000436,-0.00002079,0.00000259,-0.00000848,0.00000828,0.00000502,0
 .00000571,-0.00001639,-0.00000635,-0.00001561,0.00000862,0.00000085,0.
 00000670,-0.00002650,-0.00000256,-0.00001391,0.00001812,0.00000750,-0.
 00000027,-0.00002682,-0.00000824,-0.00000860,0.00001609,-0.00000342,0.
 00000962,0.00056326,0.00006851,0.00042482,0.00004962,-0.00033338,-0.00
 005831,0.00061221,0.00071421,0.00021024,-0.00034234,-0.00018963,-0.000
 30475,-0.00030920,-0.00000286,-0.00028604,0.00022640,-0.00003053,-0.00
 010632,0.00058271,0.00024793,-0.00038455,-0.00032129,-0.00030566,0.000
 30582,-0.00034985,-0.00010631,0.00025597,0.00019199,0.00007034,-0.0000
 8512,0.00008766,0.00008120,-0.00015777,-0.00003314,-0.00000486,0.00001
 247,-0.00002495,-0.00001042,0.00000731,-0.00000934,-0.00000145,0.00002
 066,-0.00000786,-0.00000806,0.00002526,0.00001767,0.00000650,0.0000043
 9,-0.00002590,-0.00001144,0.00000186,0.00001187,0.00000028,-0.00000417
 ,0.00000921,-0.00001004,-0.00000507,-0.00001345,-0.00000647,0.00001674
 ,0.00000413,0.00000900,-0.00000489,0.00000248,0.00000663,-0.00000775,-
 0.00001569,-0.00001071,0.00001233,0.00000544,0.00000277,-0.00000596,-0
 .00000315,0.00000598,-0.00002058,-0.00001344,-0.00000961,0.00002344,0.
 00001110,0.00000087,-0.00001185,-0.00001525,0.00004293,-0.00000320,0.0
 0000570,0.00001330,-0.00000944,-0.00028068,0.00010438,-0.00015953,0.00
 006269,0.00048270,0.00027726,0.00056342,-0.00039949,-0.00006635,-0.000
 15232,0.00017137,0.00012554,-0.00014052,0.00019625,-0.00006566,-0.0001
 8943,0.00002729,0.00000398,-0.08253735,0.00645440,0.00464802,0.0134996
 6,-0.00330724,-0.01007781,0.08049506,0.00128606,0.00017928,-0.00007701
 ,-0.00027125,-0.00109877,-0.00006347,-0.00063228,0.00087878,0.00005031
 ,0.00050453,-0.00163622,-0.00010416,0.00168961,-0.00086687,0.00153964,
 0.00356959,0.00205243,-0.00143006,0.00684019,-0.02715797,-0.03166996,-
 0.00345614,-0.00288498,-0.00027616,0.00118956,0.00070430,-0.00101061,-
 0.00181003,0.00146034,-0.00007456,0.00105375,-0.00059802,-0.00025915,-
 0.00009035,-0.00000639,-0.00032032,-0.00024966,-0.00011020,-0.00015770
 ,0.00001093,-0.00000864,0.00005575,0.00001311,-0.00003597,-0.00002654,
 0.00000191,0.00000304,0.00003545,0.00001302,0.00004142,-0.00001517,0.0
 0000941,-0.00000580,0.00005683,-0.00000075,0.00002884,-0.00000959,0.00
 002829,0.00000543,0.00001165,-0.00001801,-0.00000911,0.00000389,0.0000
 3959,0.00000092,0.00000832,-0.00001806,0.00000452,-0.00000513,0.000025
 60,0.00000504,0.00002398,-0.00001675,-0.00001143,-0.00000202,0.0000415
 7,0.00001573,0.00002731,-0.00002655,-0.00001584,-0.00000209,0.00003836
 ,0.00000922,0.00001197,-0.00002746,0.00001625,-0.00001332,-0.00092362,
 -0.00023532,-0.00069514,-0.00021512,0.00093275,0.00010474,0.00219990,-
 0.00186619,0.00126209,0.00052194,0.00041441,0.00053268,0.00044027,0.00
 007694,0.00045159,-0.00022312,0.00018305,0.00009022,-0.00072165,-0.000
 39453,0.00054837,0.00040258,0.00050887,-0.00041115,0.00042665,0.000205
 32,-0.00032557,-0.00023271,-0.00010052,0.00008496,-0.00011593,-0.00012
 938,0.00018290,0.00005237,-0.00000349,-0.00001408,0.00003623,0.0000018
 1,-0.00000922,0.00001117,0.00000597,-0.00002534,0.00000886,0.00002049,
 -0.00003124,-0.00001798,-0.00001456,-0.00000782,0.00002898,0.00001765,
 0.00000302,-0.00001484,0.00001733,-0.00000119,-0.00000947,0.00002690,0
 .00000311,0.00001033,0.00001007,-0.00002198,0.00000079,-0.00001255,0.0
 0000876,-0.00000794,-0.00000184,0.00000978,0.00002149,0.00001149,-0.00
 001670,-0.00000097,-0.00000418,0.00001307,0.00000782,-0.00001698,0.000
 02437,0.00001869,0.00001086,-0.00003010,-0.00002140,0.00000761,0.00001
 486,0.00001628,-0.00005591,0.00001238,0.00000139,-0.00003881,0.0000158
 0,0.00032110,-0.00014569,0.00015708,-0.00032508,0.00062043,-0.00073646
 ,-0.00090092,0.00052358,0.00005304,0.00023863,-0.00023299,-0.00015519,
 0.00022188,-0.00027886,0.00009823,0.00032124,-0.00000712,0.00000543,0.
 00669296,-0.18191309,-0.11347643,-0.00124380,0.02221376,0.00260196,0.0
 1755974,0.22461404,0.00052912,0.00009404,-0.00003140,-0.00010743,-0.00
 046714,-0.00003623,-0.00025701,0.00038496,0.00002776,0.00023300,-0.000
 71458,0.00002594,0.00016308,-0.00097489,0.00027191,0.00358001,0.000132
 24,-0.00093825,0.00117388,-0.01977329,-0.00663453,-0.00259007,-0.00087
 884,0.00019104,0.00087826,0.00026708,-0.00096115,-0.00081059,0.0008376
 1,-0.00020771,0.00039378,-0.00020981,-0.00004332,-0.00004428,-0.000006
 88,-0.00023238,-0.00012784,-0.00007097,-0.00010076,0.00001104,0.000011
 25,0.00004309,0.00000689,-0.00004050,-0.00001806,-0.00000231,0.0000021
 2,0.00002272,0.00001557,0.00003253,-0.00001201,0.00000446,-0.00000184,
 0.00004390,0.00000278,0.00001620,-0.00001002,0.00001812,0.00000313,0.0
 0000709,-0.00002002,-0.00000398,0.00000778,0.00003027,0.00000011,0.000
 00016,-0.00000841,0.00000391,-0.00000163,0.00001281,-0.00000036,0.0000
 1437,-0.00001351,-0.00000613,0.00000623,0.00002467,0.00001809,0.000018
 82,-0.00001577,-0.00001125,0.00000087,0.00002053,0.00000354,0.00000497
 ,-0.00001485,0.00001081,-0.00000654,-0.00056700,-0.00015787,-0.0004572
 3,-0.00003579,0.00035355,0.00007706,0.00150385,-0.00091723,0.00043532,
 0.00029312,0.00023675,0.00036091,0.00025652,0.00002669,0.00030516,-0.0
 0014118,0.00002953,-0.00009189,-0.00024911,-0.00008503,0.00020057,0.00
 018775,0.00017994,-0.00011688,0.00018176,0.00006961,-0.00009936,-0.000
 11290,-0.00004760,0.00000705,-0.00004842,-0.00004961,0.00004378,0.0000
 2039,0.00000055,0.00000114,0.00001348,-0.00000297,-0.00000776,0.000003
 27,0.00000010,-0.00000618,-0.00000612,0.00001452,-0.00000934,-0.000001
 77,-0.00001051,-0.00000089,0.00001245,0.00000786,0.00000103,-0.0000075
 5,0.00000959,-0.00000650,-0.00000959,0.00000426,-0.00000291,0.00000995
 ,0.00000271,-0.00000748,-0.00000126,0.00000520,0.00001420,-0.00000303,
 -0.00000199,0.00000146,0.00000693,0.00000395,-0.00000594,0.00000448,0.
 00000226,0.00001052,0.00001011,-0.00000681,0.00000669,0.00000551,0.000
 00486,-0.00000995,-0.00000775,0.00000282,0.00000544,0.00000684,-0.0000
 2630,0.00000086,0.00000154,-0.00001648,0.00000307,0.00025169,-0.000097
 62,0.00007853,-0.00012791,0.00034964,-0.00021219,-0.00040477,0.0002326
 6,-0.00004474,0.00010482,-0.00009115,-0.00003894,0.00010026,-0.0001349
 9,0.00006710,0.00015064,-0.00000139,0.00001396,0.00630141,-0.11075484,
 -0.19423740,-0.00744797,-0.01702134,-0.08644202,0.01819595,0.17225083,
 0.28690732,-0.00093028,-0.00012636,0.00003127,0.00010051,0.00081690,0.
 00003004,0.00043806,-0.00047145,-0.00002976,-0.00048084,0.00064189,0.0
 0006720,-0.00127730,0.00058325,-0.00017545,-0.00103394,-0.00509446,-0.
 00029385,-0.04761596,-0.02289357,0.00604318,-0.00253114,0.00857326,0.0
 0113599,0.00047621,-0.00003281,0.00002356,0.00138517,-0.00152412,-0.00
 008995,-0.00032480,0.00058973,0.00008606,0.00018202,-0.00003647,0.0003
 2839,0.00032165,0.00009366,0.00018731,-0.00001548,0.00001169,-0.000051
 58,-0.00000562,-0.00000926,0.00003625,-0.00002367,-0.00000053,-0.00004
 807,0.00001437,-0.00000132,0.00001972,-0.00001774,0.00000343,-0.000047
 76,0.00001046,-0.00001722,0.00001216,-0.00003527,-0.00000372,-0.000023
 86,0.00001019,0.00000547,0.00000949,-0.00003957,0.00000441,-0.00001479
 ,0.00001100,0.00001415,0.00001057,-0.00002804,-0.00001061,-0.00002935,
 0.00001602,-0.00000280,0.00001052,-0.00004836,-0.00000851,-0.00002361,
 0.00003515,0.00001256,-0.00000219,-0.00004908,-0.00001448,-0.00001474,
 0.00002670,-0.00000124,0.00001637,0.00093882,0.00003038,0.00093833,0.0
 0013375,-0.00041773,-0.00002530,-0.00453645,0.00008112,-0.00035725,-0.
 00064971,-0.00031946,-0.00063106,-0.00058623,0.00005266,-0.00056187,0.
 00086017,0.00051519,-0.00011394,0.00093674,0.00031087,-0.00082265,-0.0
 0059595,-0.00050169,0.00055267,-0.00068556,-0.00014663,0.00049627,0.00
 036921,0.00012797,-0.00013719,0.00016382,0.00014326,-0.00027894,-0.000
 05478,-0.00001102,0.00001776,-0.00004598,-0.00002098,0.00001614,-0.000
 01589,-0.00000164,0.00003743,-0.00001209,-0.00001797,0.00004868,0.0000
 3224,0.00001248,0.00000515,-0.00004832,-0.00002069,0.00000595,0.000021
 37,0.00000590,-0.00000628,0.00002066,-0.00000807,-0.00000712,-0.000030
 81,-0.00001160,0.00003002,0.00001180,0.00000924,-0.00001389,0.00000149
 ,0.00001657,-0.00001275,-0.00002790,-0.00001994,0.00002121,0.00001011,
 0.00000267,-0.00001116,-0.00000721,0.00000421,-0.00003562,-0.00002146,
 -0.00001668,0.00004335,0.00001394,0.00000713,-0.00002188,-0.00003336,0
 .00007272,-0.00000060,0.00001505,0.00000506,-0.00000900,-0.00012947,0.
 00010408,0.00003249,-0.00105428,0.00276950,0.00039270,0.00087926,-0.00
 069462,-0.00008612,-0.00024163,0.00028979,0.00020895,-0.00022377,0.000
 33574,-0.00012056,-0.00028097,0.00006726,0.00000558,-0.27172333,-0.079
 09157,0.02286861,-0.00233259,-0.02556399,0.02545376,-0.01248360,-0.034
 32454,-0.02153680,0.34284247,0.00009179,0.00004286,0.00000085,-0.00002
 518,-0.00011318,-0.00000498,-0.00004320,0.00016571,0.00000566,0.000100
 83,-0.00032749,-0.00003037,0.00057703,0.00172548,-0.00000645,0.0007109
 6,-0.00450815,-0.00057973,0.00908006,0.00976599,-0.00058778,-0.0001382
 0,-0.00185033,-0.00025533,0.00057857,0.00033448,-0.00003052,0.00007368
 ,0.00016361,0.00004146,0.00009061,0.00017017,0.00000481,-0.00000643,-0
 .00000562,-0.00005647,-0.00004038,-0.00002729,-0.00001940,0.00000292,-
 0.00000683,0.00001216,0.00000494,-0.00001327,-0.00000244,-0.00000481,0
 .00000130,0.00000509,0.00000729,0.00001619,-0.00000152,0.00000085,-0.0
 0000384,0.00001317,0.00000107,0.00000910,0.00000005,0.00000467,0.00000
 229,-0.00000058,-0.00000277,-0.00000321,0.00000206,0.00000705,0.000002
 69,0.00000128,-0.00000569,0.00000462,0.00000090,0.00000537,0.00000009,
 0.00000392,-0.00000222,-0.00000627,-0.00000060,0.00000701,0.00000454,0
 .00000546,-0.00000369,-0.00000233,-0.00000184,0.00000611,0.00000025,0.
 00000200,-0.00000481,0.00000566,-0.00000099,-0.00015790,-0.00005520,-0
 .00014354,0.00005271,0.00009466,-0.00000301,0.00157809,0.00018039,0.00
 007660,0.00010189,0.00011686,0.00010856,0.00006565,0.00003936,0.000068
 53,-0.00004217,-0.00011829,0.00005094,-0.00016349,-0.00014289,0.000163
 60,0.00006922,0.00017055,-0.00012856,0.00007830,0.00007235,-0.00008657
 ,-0.00003236,-0.00002101,0.00002100,-0.00001984,-0.00003743,0.00004102
 ,0.00001575,-0.00000543,-0.00000666,0.00001135,-0.00000273,0.00000045,
 0.00000189,0.00000491,-0.00000740,0.00000706,0.00000714,-0.00000691,-0
 .00000413,-0.00000339,-0.00000400,0.00000347,0.00000436,0.00000329,-0.
 00000179,0.00000988,-0.00000002,0.00000270,0.00001560,0.00000193,-0.00
 000492,0.00000373,-0.00000593,0.00000429,-0.00000926,-0.00000359,-0.00
 000309,0.00000344,0.00000243,0.00000619,0.00000101,-0.00000367,0.,-0.0
 0000293,0.00000218,-0.00000072,-0.00000744,0.00000490,0.00000498,-0.00
 000001,-0.00000723,-0.00000686,0.00000569,0.00000130,-0.00000281,-0.00
 000602,0.00000120,0.00000527,-0.00001563,0.00000484,-0.00017152,0.0000
 5297,0.00001240,0.00270077,0.00108375,-0.00003430,-0.00012277,0.000026
 79,0.00001397,0.00003041,-0.00001748,-0.00001646,0.00002811,-0.0000139
 0,0.00000093,0.00005877,0.00001150,0.00000070,-0.08546545,-0.12095235,
 0.01035652,-0.03765900,-0.02790671,0.03388392,-0.04716509,-0.03593063,
 -0.02302133,0.15512358,0.17779660,0.00003977,0.00001151,0.00000036,0.0
 0000192,-0.00003997,-0.00000092,-0.00001727,0.00001979,0.00001116,0.00
 002981,-0.00002369,0.00003376,0.00018629,-0.00004669,0.00001664,0.0000
 2220,0.00048440,-0.00029738,0.00394155,0.00199986,0.00900752,0.0004956
 7,-0.00095979,0.00168043,0.00004292,0.00001437,-0.00018122,-0.00014587
 ,-0.00003839,-0.00004272,-0.00000788,-0.00001838,0.00003546,-0.0000140
 4,0.00000185,-0.00006008,-0.00002619,-0.00001384,-0.00002665,0.0000034
 2,0.00000603,0.00001101,0.,-0.00000885,-0.00000543,0.00000103,0.000000
 45,0.00000624,0.00000263,0.00000505,-0.00000369,0.00000162,-0.00000001
 ,0.00001080,0.00000053,0.00000202,-0.00000361,0.00000474,0.00000048,0.
 00000265,-0.00000605,0.00000002,0.00000202,0.00000790,-0.00000095,-0.0
 0000061,-0.00000028,-0.00000060,-0.00000072,0.00000218,-0.00000048,0.0
 0000339,-0.00000400,0.00000056,0.00000265,0.00000560,0.00000536,0.0000
 0447,-0.00000415,-0.00000305,0.00000102,0.00000451,0.00000075,0.000000
 63,-0.00000277,0.00000131,-0.00000167,-0.00012358,-0.00001282,-0.00011
 532,0.00000292,0.00000497,0.00003134,0.00027993,0.00032434,-0.00069017
 ,0.00006716,0.00003720,0.00009369,0.00006155,-0.00001150,0.00008151,-0
 .00006496,-0.00004645,-0.00012060,-0.00001232,0.00003218,0.00002098,0.
 00003178,-0.00000447,0.00001143,0.00002882,-0.00000788,0.00000287,-0.0
 0002378,-0.00000796,-0.00000844,-0.00000756,-0.00000241,-0.00000678,0.
 00000062,0.00000171,0.00000354,-0.00000003,-0.00000131,-0.00000313,0.0
 0000002,-0.00000148,0.00000172,-0.00000555,0.00000363,0.00000030,0.000
 00105,-0.00000237,0.00000154,0.00000245,0.00000095,-0.00000085,-0.0000
 0189,-0.00000003,-0.00000229,-0.00000410,-0.00000418,-0.00000182,0.000
 00487,-0.00000049,-0.00000010,-0.00000171,0.00000564,0.00000640,0.0000
 0013,-0.00000185,-0.00000083,-0.00000029,0.00000051,-0.00000042,0.0000
 0203,0.00000216,0.00000314,0.00000407,-0.00000019,-0.00000036,-0.00000
 049,0.00000105,-0.00000025,-0.00000012,-0.00000107,0.00000088,0.000001
 98,-0.00000453,-0.00000605,-0.00000062,0.00000068,-0.00000377,0.000011
 42,-0.00000694,-0.00000485,0.00017767,-0.00022138,-0.00029627,-0.00005
 450,0.00004643,-0.00003637,0.00001398,-0.00001227,0.00000454,0.0000140
 7,-0.00002903,0.00002180,0.00001827,-0.00000427,0.00000642,0.02264703,
 0.00928399,-0.07833433,0.03898787,0.03798194,-0.01727342,-0.03303574,-
 0.02887976,0.00180377,-0.03358821,-0.01986190,0.08460506\\-0.00000697,
 0.00000598,-0.00000203,0.00000360,-0.00000143,0.00000095,0.00000712,0.
 00000020,-0.00000186,-0.00000060,0.00000186,-0.00000313,0.00000093,0.0
 0000127,-0.00000146,0.00000241,0.00000355,-0.00000372,0.00000376,-0.00
 000720,0.00000135,0.00000263,0.00000035,0.00000377,0.00000119,0.000000
 54,-0.00000165,-0.00000559,0.00000215,0.00000214,-0.00000013,0.0000026
 0,0.00000235,-0.00000351,0.00000016,-0.00000601,0.00000634,0.00000787,
 0.00000408,0.00000193,0.00000017,0.00000242,-0.00000146,-0.00000185,-0
 .00000023,-0.00000076,0.00000224,0.00000022,0.00000003,0.00000128,-0.0
 0000061,0.00000289,-0.00000778,0.00000341,-0.00000169,0.00000505,0.000
 00018,-0.00000151,0.00000148,-0.00000198,-0.00000002,0.00000026,-0.000
 00358,-0.00000252,0.00000075,-0.00000099,0.00000110,-0.00000026,0.,0.0
 0000321,0.00000250,0.00000235,0.00000060,0.00000090,-0.00000109,-0.000
 00197,0.00000319,-0.00000576,0.00000180,0.00000316,0.00000434,0.000000
 52,0.00000179,0.00000093,-0.00000048,-0.00000853,-0.00000213,0.0000033
 8,0.00001161,0.00000073,0.00000230,-0.00000573,-0.00000025,0.00001042,
 -0.00000375,0.00000674,0.00000166,-0.00000557,0.00000355,-0.00000902,0
 .00000218,0.00000155,-0.00001592,0.00000260,-0.00000907,0.00001335,-0.
 00001162,0.00000265,-0.00000224,0.00000166,0.00000419,-0.00000066,0.00
 000092,-0.00000163,0.00000379,-0.00000036,0.00000128,-0.00000285,-0.00
 000512,0.00000362,-0.00000866,0.00000287,-0.00000031,-0.00000184,-0.00
 000233,-0.00000555,0.,0.00000544,0.00000178,0.00000132,0.00000166,-0.0
 0000595,-0.00000005,-0.00000439,-0.00000468,-0.00000017,0.00000085,-0.
 00000098,0.00000100,-0.00000147,0.00000075,-0.00000051,-0.00000144,0.0
 0000101,0.00000048,-0.00000003,-0.00000060,0.00000137,-0.00000074,-0.0
 0000128,-0.00000014,-0.00000369,0.00000053,0.00000120,-0.00000107,-0.0
 0000158,0.00000087,-0.00000320,0.00000101,-0.00000219,-0.00000009,0.00
 000111,0.00000073,0.00000061,0.00000113,0.00000020,-0.00000320,0.00000
 050,0.00000061,-0.00000340,0.00000142,-0.00000462,-0.00000033,-0.00000
 055,0.00000011,-0.00000062,-0.00000038,-0.00000197,0.00000004,0.000000
 44,-0.00000561,-0.00001055,0.00000571,-0.00000374,0.00000557,0.0000035
 8,0.00000203,0.00000118,-0.00000011,0.00000792,0.00000822,-0.00000095,
 -0.00000080,-0.00000096,-0.00000535,-0.00000307,-0.00000454,0.00000469
 ,-0.00000064,0.00000542,-0.00000084,-0.00000091,0.00000112,-0.00000015
 \\\@
 The archive entry for this job was punched.


 I WISH TO HAVE NO CONNECTION WITH ANY SHIP THAT DOES NOT SAIL FAST,
 FOR I INTEND TO GO IN HARM'S WAY.
     -- JOHN PAUL JONES, USN 1747-1792
 Job cpu time:       0 days 10 hours 30 minutes 26.4 seconds.
 Elapsed time:       0 days  0 hours 40 minutes 22.7 seconds.
 File lengths (MBytes):  RWF=   2948 Int=      0 D2E=      0 Chk=     27 Scr=      1
 Normal termination of Gaussian 16 at Sat Dec  7 19:32:17 2024.
