/mnt/lustre/scratch/nvme/SLURM/9663733/usccqdma.CsAxYKxYQM
OMP_STACKSIZE=0m
GAUSS_PDEF=16
GAUSS_MDEF=65536MB
GAUSS_RDEF=SCF=Direct
 Entering Gaussian System, Link 0=g16.exe
 Initial command:
 /opt/cesga/2020/software/Core/g16/c1/l1.exe "/mnt/lustre/scratch/nvme/SLURM/9663733/usccqdma.CsAxYKxYQM/Gau-3512543.inp" -scrdir="/mnt/lustre/scratch/nvme/SLURM/9663733/usccqdma.CsAxYKxYQM/"
 Default is to use a total of  16 processors:
                               16 via shared-memory
                                1 via Linda
 Entering Link 1 = /opt/cesga/2020/software/Core/g16/c1/l1.exe PID=   3512571.
  
 Copyright (c) 1988-2019, Gaussian, Inc.  All Rights Reserved.
  
 This is part of the Gaussian(R) 16 program.  It is based on
 the Gaussian(R) 09 system (copyright 2009, Gaussian, Inc.),
 the Gaussian(R) 03 system (copyright 2003, Gaussian, Inc.),
 the Gaussian(R) 98 system (copyright 1998, Gaussian, Inc.),
 the Gaussian(R) 94 system (copyright 1995, Gaussian, Inc.),
 the Gaussian 92(TM) system (copyright 1992, Gaussian, Inc.),
 the Gaussian 90(TM) system (copyright 1990, Gaussian, Inc.),
 the Gaussian 88(TM) system (copyright 1988, Gaussian, Inc.),
 the Gaussian 86(TM) system (copyright 1986, Carnegie Mellon
 University), and the Gaussian 82(TM) system (copyright 1983,
 Carnegie Mellon University). Gaussian is a federally registered
 trademark of Gaussian, Inc.
  
 This software contains proprietary and confidential information,
 including trade secrets, belonging to Gaussian, Inc.
  
 This software is provided under written license and may be
 used, copied, transmitted, or stored only in accord with that
 written license.
  
 The following legend is applicable only to US Government
 contracts under FAR:
  
                    RESTRICTED RIGHTS LEGEND
  
 Use, reproduction and disclosure by the US Government is
 subject to restrictions as set forth in subparagraphs (a)
 and (c) of the Commercial Computer Software - Restricted
 Rights clause in FAR 52.227-19.
  
 Gaussian, Inc.
 340 Quinnipiac St., Bldg. 40, Wallingford CT 06492
  
  
 ---------------------------------------------------------------
 Warning -- This program may not be used in any manner that
 competes with the business of Gaussian, Inc. or will provide
 assistance to any competitor of Gaussian, Inc.  The licensee
 of this program is prohibited from giving any competitor of
 Gaussian, Inc. access to this program.  By using this program,
 the user acknowledges that Gaussian, Inc. is engaged in the
 business of creating and licensing software in the field of
 computational chemistry and represents and warrants to the
 licensee that it is not a competitor of Gaussian, Inc. and that
 it will not use this program in any manner prohibited above.
 ---------------------------------------------------------------
  

 Cite this work as:
 Gaussian 16, Revision C.01,
 M. J. Frisch, G. W. Trucks, H. B. Schlegel, G. E. Scuseria, 
 M. A. Robb, J. R. Cheeseman, G. Scalmani, V. Barone, 
 G. A. Petersson, H. Nakatsuji, X. Li, M. Caricato, A. V. Marenich, 
 J. Bloino, B. G. Janesko, R. Gomperts, B. Mennucci, H. P. Hratchian, 
 J. V. Ortiz, A. F. Izmaylov, J. L. Sonnenberg, D. Williams-Young, 
 F. Ding, F. Lipparini, F. Egidi, J. Goings, B. Peng, A. Petrone, 
 T. Henderson, D. Ranasinghe, V. G. Zakrzewski, J. Gao, N. Rega, 
 G. Zheng, W. Liang, M. Hada, M. Ehara, K. Toyota, R. Fukuda, 
 J. Hasegawa, M. Ishida, T. Nakajima, Y. Honda, O. Kitao, H. Nakai, 
 T. Vreven, K. Throssell, J. A. Montgomery, Jr., J. E. Peralta, 
 F. Ogliaro, M. J. Bearpark, J. J. Heyd, E. N. Brothers, K. N. Kudin, 
 V. N. Staroverov, T. A. Keith, R. Kobayashi, J. Normand, 
 K. Raghavachari, A. P. Rendell, J. C. Burant, S. S. Iyengar, 
 J. Tomasi, M. Cossi, J. M. Millam, M. Klene, C. Adamo, R. Cammi, 
 J. W. Ochterski, R. L. Martin, K. Morokuma, O. Farkas, 
 J. B. Foresman, and D. J. Fox, Gaussian, Inc., Wallingford CT, 2019.
 
 ******************************************
 Gaussian 16:  ES64L-G16RevC.01  3-Jul-2019
                 7-Dec-2024 
 ******************************************
 Default route: SCF=Direct
 ----------------------------------------------------
 # m06/genecp scf=tight int=ultrafine 5d freq=noraman
 ----------------------------------------------------
 1/10=4,30=1,38=1/1,3;
 2/12=2,17=6,18=5,40=1/2;
 3/5=7,8=1,11=2,16=1,17=8,25=1,30=1,71=2,74=-54,75=-5,140=1/1,2,3;
 4//1;
 5/5=2,32=2,38=5,98=1/2;
 8/6=4,10=90,11=11/1;
 11/6=1,8=1,9=11,15=111,16=1/1,2,10;
 10/6=1/2;
 6/7=2,8=2,9=2,10=2,28=1/1;
 7/8=1,10=1,25=1/1,2,3,16;
 1/10=4,30=1/3;
 99//99;
 ------
 OPT-TS
 ------
 Symbolic Z-matrix:
 Charge =  0 Multiplicity = 1
 C                     2.47716  -1.77745   0.07233 
 C                     0.88042  -2.21629   1.70507 
 C                     1.63301  -3.25095   2.23339 
 C                     2.85934  -3.54797   1.65355 
 C                     3.28519  -2.80249   0.56695 
 C                     2.85967  -0.95727  -1.08912 
 C                     2.22719   0.73798  -2.54359 
 C                     3.38863   0.60695  -3.28853 
 C                     4.32536  -0.34436  -2.89353 
 C                     4.05946  -1.13413  -1.78722 
 H                    -0.07088  -1.9128    2.13734 
 H                     3.48383  -4.34781   2.04644 
 H                     4.24688  -3.01566   0.10753 
 H                     1.47045   1.48645  -2.77693 
 H                     5.25404  -0.47357  -3.44607 
 H                     4.78006  -1.88436  -1.47186 
 N                     1.28086  -1.50648   0.64235 
 N                     1.97089  -0.01864  -1.47019 
 Ir                    0.11826   0.13194  -0.17615 
 O                    -1.55359  -0.21399   2.3367 
 O                    -1.35353  -1.52166  -2.44622 
 O                     0.17148   2.9393   -1.41048 
 B                    -0.95166  -1.41971  -1.12777 
 B                    -1.55462   0.05013   0.97085 
 B                    -0.40797   2.10928  -0.44931 
 O                    -1.34324   2.80917   0.29106 
 O                    -2.86002   0.14291   0.49751 
 C                    -3.73852   0.17797   1.62892 
 C                    -2.8986   -0.5415    2.7234 
 C                    -0.30762   4.27806  -1.18164 
 C                    -1.63855   4.01866  -0.42109 
 C                    -2.22022  -2.66575  -2.55041 
 C                    -1.7332   -3.54678  -1.36923 
 O                    -1.3171   -2.55818  -0.41594 
 C                    -3.13758  -0.05467   4.13799 
 H                    -2.49535  -0.60935   4.83401 
 H                    -2.90423   1.01021   4.24311 
 H                    -4.18333  -0.21842   4.43654 
 C                    -3.02072  -2.05923   2.66424 
 H                    -2.81411  -2.42937   1.65009 
 H                    -2.27772  -2.49924   3.34356 
 H                    -4.0136   -2.4057    2.98175 
 C                    -4.00613   1.64234   1.95351 
 H                    -3.07531   2.16782   2.2012 
 H                    -4.43024   2.12499   1.06255 
 H                    -4.72118   1.7554    2.77986 
 C                    -5.03656  -0.5159    1.26602 
 H                    -4.86267  -1.53458   0.89876 
 H                    -5.71209  -0.56739   2.13234 
 H                    -5.54482   0.04602   0.47151 
 C                    -3.64305  -2.15647  -2.36216 
 H                    -3.84433  -1.39113  -3.12207 
 H                    -4.38642  -2.95759  -2.47407 
 H                    -3.76132  -1.68456  -1.37659 
 C                    -2.05875  -3.29011  -3.92057 
 H                    -2.64466  -4.21758  -3.99812 
 H                    -2.42074  -2.59602  -4.6896 
 H                    -1.00995  -3.51862  -4.14067 
 C                    -2.79457  -4.42733  -0.74344 
 H                    -2.36301  -4.99062   0.09455 
 H                    -3.63223  -3.83585  -0.35549 
 H                    -3.18585  -5.15025  -1.47382 
 C                    -0.49494  -4.37015  -1.70452 
 H                    -0.71839  -5.20436  -2.38328 
 H                     0.28125  -3.73996  -2.16123 
 H                    -0.08563  -4.78176  -0.77214 
 C                    -2.0331    5.09528   0.56847 
 H                    -2.16979   6.06196   0.06263 
 H                    -2.98448   4.82705   1.04608 
 H                    -1.28284   5.21356   1.35794 
 C                    -2.80507   3.70999  -1.3518 
 H                    -3.63186   3.30871  -0.75229 
 H                    -3.15937   4.60447  -1.88179 
 H                    -2.53493   2.94429  -2.09135 
 C                    -0.46214   4.98004  -2.51555 
 H                    -1.07879   4.39896  -3.2096 
 H                    -0.92101   5.97042  -2.38344 
 H                     0.52315   5.1246   -2.97751 
 C                     0.72799   5.00206  -0.33293 
 H                     0.84573   4.52509   0.64924 
 H                     1.69809   4.96823  -0.8463 
 H                     0.461     6.05606  -0.17862 
 H                    -0.86896   0.68268  -1.34226 
 C                     3.46761   0.46436   2.03853 
 O                     3.02319  -0.30611   2.88454 
 C                     4.96771   0.54226   1.77702 
 H                     5.1608    0.30818   0.71588 
 H                     5.31856   1.57709   1.91458 
 C                     1.21991   1.24154   1.44156 
 H                     0.99945   0.67116   2.34804 
 H                     0.88206   2.27164   1.62375 
 N                     2.6686    1.26253   1.26997 
 C                     3.19221   2.28773   0.39469 
 H                     4.07769   1.95194  -0.15932 
 H                     2.41661   2.5467   -0.33559 
 H                     3.4584    3.20554   0.94682 
 C                     5.74131  -0.4063    2.67199 
 H                     5.56311  -0.1794    3.72877 
 H                     5.41721  -1.44222   2.51386 
 H                     3.55542   1.24365  -4.15363 
 H                     1.26548  -3.7963    3.09828 
 H                     6.81864  -0.34057   2.47529 
 

 GradGradGradGradGradGradGradGradGradGradGradGradGradGradGradGradGradGrad
 Berny optimization.
 Initialization pass.
 Trust Radius=3.00D-01 FncErr=1.00D-07 GrdErr=1.00D-07 EigMax=2.50D+02 EigMin=1.00D-04
 Number of steps in this run=      2 maximum allowed number of steps=      2.
 GradGradGradGradGradGradGradGradGradGradGradGradGradGradGradGradGradGrad

 Stoichiometry    C33H55B3IrN3O7
 Framework group  C1[X(C33H55B3IrN3O7)]
 Deg. of freedom   300
 Full point group                 C1      NOp   1
 Largest Abelian subgroup         C1      NOp   1
 Largest concise Abelian subgroup C1      NOp   1
                         Standard orientation:                         
 ---------------------------------------------------------------------
 Center     Atomic      Atomic             Coordinates (Angstroms)
 Number     Number       Type             X           Y           Z
 ---------------------------------------------------------------------
      1          6           0        2.477159   -1.777452    0.072330
      2          6           0        0.880419   -2.216290    1.705070
      3          6           0        1.633008   -3.250951    2.233390
      4          6           0        2.859337   -3.547972    1.653550
      5          6           0        3.285188   -2.802493    0.566950
      6          6           0        2.859670   -0.957272   -1.089120
      7          6           0        2.227192    0.737978   -2.543590
      8          6           0        3.388631    0.606947   -3.288530
      9          6           0        4.325360   -0.344364   -2.893530
     10          6           0        4.059460   -1.134133   -1.787220
     11          1           0       -0.070881   -1.912800    2.137340
     12          1           0        3.483827   -4.347813    2.046440
     13          1           0        4.246878   -3.015664    0.107530
     14          1           0        1.470452    1.486449   -2.776930
     15          1           0        5.254040   -0.473575   -3.446070
     16          1           0        4.780059   -1.884364   -1.471860
     17          7           0        1.280859   -1.506481    0.642350
     18          7           0        1.970891   -0.018641   -1.470190
     19         77           0        0.118261    0.131940   -0.176150
     20          8           0       -1.553589   -0.213988    2.336700
     21          8           0       -1.353531   -1.521658   -2.446220
     22          8           0        0.171484    2.939300   -1.410480
     23          5           0       -0.951661   -1.419709   -1.127770
     24          5           0       -1.554619    0.050132    0.970850
     25          5           0       -0.407967    2.109281   -0.449310
     26          8           0       -1.343237    2.809172    0.291060
     27          8           0       -2.860019    0.142913    0.497510
     28          6           0       -3.738519    0.177974    1.628920
     29          6           0       -2.898600   -0.541497    2.723400
     30          6           0       -0.307615    4.278061   -1.181640
     31          6           0       -1.638545    4.018662   -0.421090
     32          6           0       -2.220222   -2.665747   -2.550410
     33          6           0       -1.733203   -3.546778   -1.369230
     34          8           0       -1.317102   -2.558178   -0.415940
     35          6           0       -3.137579   -0.054667    4.137990
     36          1           0       -2.495350   -0.609347    4.834010
     37          1           0       -2.904228    1.010213    4.243110
     38          1           0       -4.183329   -0.218416    4.436540
     39          6           0       -3.020721   -2.059227    2.664240
     40          1           0       -2.814112   -2.429367    1.650090
     41          1           0       -2.277722   -2.499237    3.343560
     42          1           0       -4.013601   -2.405696    2.981750
     43          6           0       -4.006128    1.642344    1.953510
     44          1           0       -3.075307    2.167823    2.201200
     45          1           0       -4.430237    2.124995    1.062550
     46          1           0       -4.721178    1.755405    2.779860
     47          6           0       -5.036560   -0.515895    1.266020
     48          1           0       -4.862671   -1.534575    0.898760
     49          1           0       -5.712090   -0.567384    2.132340
     50          1           0       -5.544819    0.046026    0.471510
     51          6           0       -3.643051   -2.156466   -2.362160
     52          1           0       -3.844331   -1.391126   -3.122070
     53          1           0       -4.386422   -2.957585   -2.474070
     54          1           0       -3.761321   -1.684556   -1.376590
     55          6           0       -2.058752   -3.290108   -3.920570
     56          1           0       -2.644663   -4.217577   -3.998120
     57          1           0       -2.420742   -2.596017   -4.689600
     58          1           0       -1.009953   -3.518619   -4.140670
     59          6           0       -2.794573   -4.427327   -0.743440
     60          1           0       -2.363014   -4.990617    0.094550
     61          1           0       -3.632233   -3.835846   -0.355490
     62          1           0       -3.185854   -5.150247   -1.473820
     63          6           0       -0.494943   -4.370149   -1.704520
     64          1           0       -0.718394   -5.204359   -2.383280
     65          1           0        0.281247   -3.739960   -2.161230
     66          1           0       -0.085634   -4.781759   -0.772140
     67          6           0       -2.033094    5.095282    0.568470
     68          1           0       -2.169783    6.061962    0.062630
     69          1           0       -2.984475    4.827053    1.046080
     70          1           0       -1.282834    5.213562    1.357940
     71          6           0       -2.805066    3.709993   -1.351800
     72          1           0       -3.631856    3.308714   -0.752290
     73          1           0       -3.159365    4.604473   -1.881790
     74          1           0       -2.534926    2.944293   -2.091350
     75          6           0       -0.462134    4.980041   -2.515550
     76          1           0       -1.078785    4.398961   -3.209600
     77          1           0       -0.921004    5.970421   -2.383440
     78          1           0        0.523156    5.124600   -2.977510
     79          6           0        0.727996    5.002060   -0.332930
     80          1           0        0.845735    4.525090    0.649240
     81          1           0        1.698096    4.968229   -0.846300
     82          1           0        0.461007    6.056060   -0.178620
     83          1           0       -0.868959    0.682681   -1.342260
     84          6           0        3.467611    0.464357    2.038530
     85          8           0        3.023191   -0.306112    2.884540
     86          6           0        4.967711    0.542256    1.777020
     87          1           0        5.160801    0.308176    0.715880
     88          1           0        5.318562    1.577085    1.914580
     89          6           0        1.219912    1.241539    1.441560
     90          1           0        0.999451    0.671159    2.348040
     91          1           0        0.882063    2.271640    1.623750
     92          7           0        2.668602    1.262528    1.269970
     93          6           0        3.192213    2.287727    0.394690
     94          1           0        4.077693    1.951937   -0.159320
     95          1           0        2.416613    2.546698   -0.335590
     96          1           0        3.458404    3.205537    0.946820
     97          6           0        5.741310   -0.406305    2.671990
     98          1           0        5.563111   -0.179405    3.728770
     99          1           0        5.417209   -1.442225    2.513860
    100          1           0        3.555422    1.243647   -4.153630
    101          1           0        1.265477   -3.796301    3.098280
    102          1           0        6.818640   -0.340576    2.475290
 ---------------------------------------------------------------------
 Rotational constants (GHZ):           0.0759586           0.0688489           0.0556889
 General basis read from cards:  (5D, 7F)
 ======================================================================================================
                                       Pseudopotential Parameters
 ======================================================================================================
  Center     Atomic      Valence      Angular      Power
  Number     Number     Electrons     Momentum     of R      Exponent        Coefficient   SO-Coeffient
 ======================================================================================================
    1          6
                                   No pseudopotential on this center.
    2          6
                                   No pseudopotential on this center.
    3          6
                                   No pseudopotential on this center.
    4          6
                                   No pseudopotential on this center.
    5          6
                                   No pseudopotential on this center.
    6          6
                                   No pseudopotential on this center.
    7          6
                                   No pseudopotential on this center.
    8          6
                                   No pseudopotential on this center.
    9          6
                                   No pseudopotential on this center.
   10          6
                                   No pseudopotential on this center.
   11          1
                                   No pseudopotential on this center.
   12          1
                                   No pseudopotential on this center.
   13          1
                                   No pseudopotential on this center.
   14          1
                                   No pseudopotential on this center.
   15          1
                                   No pseudopotential on this center.
   16          1
                                   No pseudopotential on this center.
   17          7
                                   No pseudopotential on this center.
   18          7
                                   No pseudopotential on this center.
   19         77           17
                                      G and up 
                                                     1      823.5880147       -0.15780140    0.00000000
                                                     2      364.6613336    -1517.52704460    0.00000000
                                                     2       55.7082801     -316.53065290    0.00000000
                                                     2       12.0464544      -91.88809410    0.00000000
                                                     2        3.5120610       -9.22417730    0.00000000
                                      S - G
                                                     0      188.0490770        3.15780140    0.00000000
                                                     1      340.4194712       26.83225770    0.00000000
                                                     2      128.2373673      800.42500070    0.00000000
                                                     2       33.8644961      369.40506830    0.00000000
                                                     2        4.7560005      242.41718990    0.00000000
                                                     2        3.9649974     -118.21732820    0.00000000
                                      P - G
                                                     0      289.7291139        2.15780140    0.00000000
                                                     1       87.4633789       61.96786100    0.00000000
                                                     2       30.4363766      269.05819860    0.00000000
                                                     2        4.0553412      231.16547930    0.00000000
                                                     2        3.5525341     -133.69526670    0.00000000
                                      D - G
                                                     0      136.4017106        3.15780140    0.00000000
                                                     1       95.0776925       45.93498030    0.00000000
                                                     2       49.2258410      359.03446680    0.00000000
                                                     2       15.0874145      176.47401190    0.00000000
                                                     2        4.0405764       54.51552860    0.00000000
                                      F - G
                                                     0      127.3507908        3.95461970    0.00000000
                                                     1       66.2364374       52.97736550    0.00000000
                                                     2       34.4299229      274.86433830    0.00000000
                                                     2       10.1995721      137.20473380    0.00000000
                                                     2        2.5409702       14.86333050    0.00000000
   20          8
                                   No pseudopotential on this center.
   21          8
                                   No pseudopotential on this center.
   22          8
                                   No pseudopotential on this center.
   23          5
                                   No pseudopotential on this center.
   24          5
                                   No pseudopotential on this center.
   25          5
                                   No pseudopotential on this center.
   26          8
                                   No pseudopotential on this center.
   27          8
                                   No pseudopotential on this center.
   28          6
                                   No pseudopotential on this center.
   29          6
                                   No pseudopotential on this center.
   30          6
                                   No pseudopotential on this center.
   31          6
                                   No pseudopotential on this center.
   32          6
                                   No pseudopotential on this center.
   33          6
                                   No pseudopotential on this center.
   34          8
                                   No pseudopotential on this center.
   35          6
                                   No pseudopotential on this center.
   36          1
                                   No pseudopotential on this center.
   37          1
                                   No pseudopotential on this center.
   38          1
                                   No pseudopotential on this center.
   39          6
                                   No pseudopotential on this center.
   40          1
                                   No pseudopotential on this center.
   41          1
                                   No pseudopotential on this center.
   42          1
                                   No pseudopotential on this center.
   43          6
                                   No pseudopotential on this center.
   44          1
                                   No pseudopotential on this center.
   45          1
                                   No pseudopotential on this center.
   46          1
                                   No pseudopotential on this center.
   47          6
                                   No pseudopotential on this center.
   48          1
                                   No pseudopotential on this center.
   49          1
                                   No pseudopotential on this center.
   50          1
                                   No pseudopotential on this center.
   51          6
                                   No pseudopotential on this center.
   52          1
                                   No pseudopotential on this center.
   53          1
                                   No pseudopotential on this center.
   54          1
                                   No pseudopotential on this center.
   55          6
                                   No pseudopotential on this center.
   56          1
                                   No pseudopotential on this center.
   57          1
                                   No pseudopotential on this center.
   58          1
                                   No pseudopotential on this center.
   59          6
                                   No pseudopotential on this center.
   60          1
                                   No pseudopotential on this center.
   61          1
                                   No pseudopotential on this center.
   62          1
                                   No pseudopotential on this center.
   63          6
                                   No pseudopotential on this center.
   64          1
                                   No pseudopotential on this center.
   65          1
                                   No pseudopotential on this center.
   66          1
                                   No pseudopotential on this center.
   67          6
                                   No pseudopotential on this center.
   68          1
                                   No pseudopotential on this center.
   69          1
                                   No pseudopotential on this center.
   70          1
                                   No pseudopotential on this center.
   71          6
                                   No pseudopotential on this center.
   72          1
                                   No pseudopotential on this center.
   73          1
                                   No pseudopotential on this center.
   74          1
                                   No pseudopotential on this center.
   75          6
                                   No pseudopotential on this center.
   76          1
                                   No pseudopotential on this center.
   77          1
                                   No pseudopotential on this center.
   78          1
                                   No pseudopotential on this center.
   79          6
                                   No pseudopotential on this center.
   80          1
                                   No pseudopotential on this center.
   81          1
                                   No pseudopotential on this center.
   82          1
                                   No pseudopotential on this center.
   83          1
                                   No pseudopotential on this center.
   84          6
                                   No pseudopotential on this center.
   85          8
                                   No pseudopotential on this center.
   86          6
                                   No pseudopotential on this center.
   87          1
                                   No pseudopotential on this center.
   88          1
                                   No pseudopotential on this center.
   89          6
                                   No pseudopotential on this center.
   90          1
                                   No pseudopotential on this center.
   91          1
                                   No pseudopotential on this center.
   92          7
                                   No pseudopotential on this center.
   93          6
                                   No pseudopotential on this center.
   94          1
                                   No pseudopotential on this center.
   95          1
                                   No pseudopotential on this center.
   96          1
                                   No pseudopotential on this center.
   97          6
                                   No pseudopotential on this center.
   98          1
                                   No pseudopotential on this center.
   99          1
                                   No pseudopotential on this center.
  100          1
                                   No pseudopotential on this center.
  101          1
                                   No pseudopotential on this center.
  102          1
                                   No pseudopotential on this center.
 ======================================================================================================
 There are   824 symmetry adapted cartesian basis functions of A   symmetry.
 There are   776 symmetry adapted basis functions of A   symmetry.
   776 basis functions,  1551 primitive gaussians,   824 cartesian basis functions
   181 alpha electrons      181 beta electrons
       nuclear repulsion energy      7454.6712388660 Hartrees.
 NAtoms=  102 NActive=  102 NUniq=  102 SFac= 1.00D+00 NAtFMM=   60 NAOKFM=T Big=T
 Integral buffers will be    131072 words long.
 Raffenetti 2 integral format.
 Two-electron integral symmetry is turned on.
 One-electron integrals computed using PRISM.
   1 Symmetry operations used in ECPInt.
 ECPInt:  NShTT=   45753 NPrTT=  276657 LenC2=   36256 LenP2D=  113280.
 LDataN:  DoStor=T MaxTD1= 6 Len=  172
 NBasis=   776 RedAO= T EigKep=  5.11D-04  NBF=   776
 NBsUse=   776 1.00D-06 EigRej= -1.00D+00 NBFU=   776
 Defaulting to unpruned grid for atomic number  77.
 ExpMin= 2.90D-02 ExpMax= 5.48D+03 ExpMxC= 8.25D+02 IAcc=3 IRadAn=         5 AccDes= 0.00D+00
 Harris functional with IExCor= 1009 and IRadAn=       5 diagonalized for initial guess.
 HarFok:  IExCor= 1009 AccDes= 0.00D+00 IRadAn=         5 IDoV= 1 UseB2=F ITyADJ=14
 ICtDFT=  3500011 ScaDFX=  1.000000  1.000000  1.000000  1.000000
 Defaulting to unpruned grid for atomic number  77.
 FoFCou: FMM=F IPFlag=           0 FMFlag=      100000 FMFlg1=        2001
         NFxFlg=           0 DoJE=T BraDBF=F KetDBF=T FulRan=T
         wScrn=  0.000000 ICntrl=       500 IOpCl=  0 I1Cent=   200000004 NGrid=           0
         NMat0=    1 NMatS0=      1 NMatT0=    0 NMatD0=    1 NMtDS0=    0 NMtDT0=    0
 Petite list used in FoFCou.
 Requested convergence on RMS density matrix=1.00D-08 within 128 cycles.
 Requested convergence on MAX density matrix=1.00D-06.
 Requested convergence on             energy=1.00D-06.
 No special actions if energy rises.
 Defaulting to unpruned grid for atomic number  77.
 Defaulting to unpruned grid for atomic number  77.
 Defaulting to unpruned grid for atomic number  77.
 Defaulting to unpruned grid for atomic number  77.
 Defaulting to unpruned grid for atomic number  77.
 Defaulting to unpruned grid for atomic number  77.
 Defaulting to unpruned grid for atomic number  77.
 Defaulting to unpruned grid for atomic number  77.
 Defaulting to unpruned grid for atomic number  77.
 Defaulting to unpruned grid for atomic number  77.
 Defaulting to unpruned grid for atomic number  77.
 Defaulting to unpruned grid for atomic number  77.
 Defaulting to unpruned grid for atomic number  77.
 Defaulting to unpruned grid for atomic number  77.
 Defaulting to unpruned grid for atomic number  77.
 Defaulting to unpruned grid for atomic number  77.
 SCF Done:  E(RM06) =  -2159.67672994     A.U. after   15 cycles
            NFock= 15  Conv=0.80D-08     -V/T= 2.0409
 DoSCS=F DFT=T ScalE2(SS,OS)=  1.000000  1.000000
 Range of M.O.s used for correlation:     1   776
 NBasis=   776 NAE=   181 NBE=   181 NFC=     0 NFV=     0
 NROrb=    776 NOA=   181 NOB=   181 NVA=   595 NVB=   595

 **** Warning!!: The largest alpha MO coefficient is  0.12873591D+02

   1 Symmetry operations used in ECPInt.
 ECPInt:  NShTT=   45753 NPrTT=  276657 LenC2=   36256 LenP2D=  113280.
 LDataN:  DoStor=T MaxTD1= 7 Len=  274
 Number of processors reduced to   8 by ecpmxn.
 Symmetrizing basis deriv contribution to polar:
 IMax=3 JMax=2 DiffMx= 0.00D+00
 G2DrvN: will do   103 centers at a time, making    1 passes.
 Calling FoFCou, ICntrl=  3107 FMM=T I1Cent=   0 AccDes= 0.00D+00.
 Defaulting to unpruned grid for atomic number  77.
 Defaulting to unpruned grid for atomic number  77.
 Defaulting to unpruned grid for atomic number  77.
 Defaulting to unpruned grid for atomic number  77.
 Defaulting to unpruned grid for atomic number  77.
 Defaulting to unpruned grid for atomic number  77.
 Defaulting to unpruned grid for atomic number  77.
 Defaulting to unpruned grid for atomic number  77.
 Defaulting to unpruned grid for atomic number  77.
 Defaulting to unpruned grid for atomic number  77.
 Defaulting to unpruned grid for atomic number  77.
 Defaulting to unpruned grid for atomic number  77.
 Defaulting to unpruned grid for atomic number  77.
 Defaulting to unpruned grid for atomic number  77.
 Defaulting to unpruned grid for atomic number  77.
 Defaulting to unpruned grid for atomic number  77.
 End of G2Drv F.D. properties file   721 does not exist.
 End of G2Drv F.D. properties file   722 does not exist.
 End of G2Drv F.D. properties file   788 does not exist.
          IDoAtm=11111111111111111111111111111111111111111111111111
          IDoAtm=11111111111111111111111111111111111111111111111111
          IDoAtm=11
          Differentiating once with respect to electric field.
                with respect to dipole field.
          Differentiating once with respect to nuclear coordinates.
 Defaulting to unpruned grid for atomic number  77.
 CalDSu exits because no D1Ps are significant.
 Defaulting to unpruned grid for atomic number  77.
 Defaulting to unpruned grid for atomic number  77.
 Defaulting to unpruned grid for atomic number  77.
 Defaulting to unpruned grid for atomic number  77.
 Defaulting to unpruned grid for atomic number  77.
 Defaulting to unpruned grid for atomic number  77.
 Defaulting to unpruned grid for atomic number  77.
 Defaulting to unpruned grid for atomic number  77.
 Defaulting to unpruned grid for atomic number  77.
 Defaulting to unpruned grid for atomic number  77.
 Defaulting to unpruned grid for atomic number  77.
 Defaulting to unpruned grid for atomic number  77.
 Defaulting to unpruned grid for atomic number  77.
 Defaulting to unpruned grid for atomic number  77.
 Defaulting to unpruned grid for atomic number  77.
 Defaulting to unpruned grid for atomic number  77.
          There are   309 degrees of freedom in the 1st order CPHF.  IDoFFX=6 NUNeed=     3.
    306 vectors produced by pass  0 Test12= 1.08D-13 1.00D-09 XBig12= 4.24D+02 6.43D+00.
 AX will form    72 AO Fock derivatives at one time.
    306 vectors produced by pass  1 Test12= 1.08D-13 1.00D-09 XBig12= 6.46D+01 1.01D+00.
    306 vectors produced by pass  2 Test12= 1.08D-13 1.00D-09 XBig12= 7.44D-01 6.63D-02.
    306 vectors produced by pass  3 Test12= 1.08D-13 1.00D-09 XBig12= 4.07D-03 5.30D-03.
    306 vectors produced by pass  4 Test12= 1.08D-13 1.00D-09 XBig12= 1.21D-05 3.38D-04.
    264 vectors produced by pass  5 Test12= 1.08D-13 1.00D-09 XBig12= 2.26D-08 9.79D-06.
     68 vectors produced by pass  6 Test12= 1.08D-13 1.00D-09 XBig12= 3.13D-11 4.19D-07.
      3 vectors produced by pass  7 Test12= 1.08D-13 1.00D-09 XBig12= 4.30D-14 1.75D-08.
 InvSVY:  IOpt=1 It=  1 EMax= 2.49D-14
 Solved reduced A of dimension  1865 with   309 vectors.
 Isotropic polarizability for W=    0.000000      461.73 Bohr**3.
 End of Minotr F.D. properties file   721 does not exist.
 End of Minotr F.D. properties file   722 does not exist.
 End of Minotr F.D. properties file   788 does not exist.
 Hyperfine terms turned off by default for NAtoms > 100.

 **********************************************************************

            Population analysis using the SCF Density.

 **********************************************************************

 Orbital symmetries:
       Occupied  (A) (A) (A) (A) (A) (A) (A) (A) (A) (A) (A) (A)
                 (A) (A) (A) (A) (A) (A) (A) (A) (A) (A) (A) (A)
                 (A) (A) (A) (A) (A) (A) (A) (A) (A) (A) (A) (A)
                 (A) (A) (A) (A) (A) (A) (A) (A) (A) (A) (A) (A)
                 (A) (A) (A) (A) (A) (A) (A) (A) (A) (A) (A) (A)
                 (A) (A) (A) (A) (A) (A) (A) (A) (A) (A) (A) (A)
                 (A) (A) (A) (A) (A) (A) (A) (A) (A) (A) (A) (A)
                 (A) (A) (A) (A) (A) (A) (A) (A) (A) (A) (A) (A)
                 (A) (A) (A) (A) (A) (A) (A) (A) (A) (A) (A) (A)
                 (A) (A) (A) (A) (A) (A) (A) (A) (A) (A) (A) (A)
                 (A) (A) (A) (A) (A) (A) (A) (A) (A) (A) (A) (A)
                 (A) (A) (A) (A) (A) (A) (A) (A) (A) (A) (A) (A)
                 (A) (A) (A) (A) (A) (A) (A) (A) (A) (A) (A) (A)
                 (A) (A) (A) (A) (A) (A) (A) (A) (A) (A) (A) (A)
                 (A) (A) (A) (A) (A) (A) (A) (A) (A) (A) (A) (A)
                 (A)
       Virtual   (A) (A) (A) (A) (A) (A) (A) (A) (A) (A) (A) (A)
                 (A) (A) (A) (A) (A) (A) (A) (A) (A) (A) (A) (A)
                 (A) (A) (A) (A) (A) (A) (A) (A) (A) (A) (A) (A)
                 (A) (A) (A) (A) (A) (A) (A) (A) (A) (A) (A) (A)
                 (A) (A) (A) (A) (A) (A) (A) (A) (A) (A) (A) (A)
                 (A) (A) (A) (A) (A) (A) (A) (A) (A) (A) (A) (A)
                 (A) (A) (A) (A) (A) (A) (A) (A) (A) (A) (A) (A)
                 (A) (A) (A) (A) (A) (A) (A) (A) (A) (A) (A) (A)
                 (A) (A) (A) (A) (A) (A) (A) (A) (A) (A) (A) (A)
                 (A) (A) (A) (A) (A) (A) (A) (A) (A) (A) (A) (A)
                 (A) (A) (A) (A) (A) (A) (A) (A) (A) (A) (A) (A)
                 (A) (A) (A) (A) (A) (A) (A) (A) (A) (A) (A) (A)
                 (A) (A) (A) (A) (A) (A) (A) (A) (A) (A) (A) (A)
                 (A) (A) (A) (A) (A) (A) (A) (A) (A) (A) (A) (A)
                 (A) (A) (A) (A) (A) (A) (A) (A) (A) (A) (A) (A)
                 (A) (A) (A) (A) (A) (A) (A) (A) (A) (A) (A) (A)
                 (A) (A) (A) (A) (A) (A) (A) (A) (A) (A) (A) (A)
                 (A) (A) (A) (A) (A) (A) (A) (A) (A) (A) (A) (A)
                 (A) (A) (A) (A) (A) (A) (A) (A) (A) (A) (A) (A)
                 (A) (A) (A) (A) (A) (A) (A) (A) (A) (A) (A) (A)
                 (A) (A) (A) (A) (A) (A) (A) (A) (A) (A) (A) (A)
                 (A) (A) (A) (A) (A) (A) (A) (A) (A) (A) (A) (A)
                 (A) (A) (A) (A) (A) (A) (A) (A) (A) (A) (A) (A)
                 (A) (A) (A) (A) (A) (A) (A) (A) (A) (A) (A) (A)
                 (A) (A) (A) (A) (A) (A) (A) (A) (A) (A) (A) (A)
                 (A) (A) (A) (A) (A) (A) (A) (A) (A) (A) (A) (A)
                 (A) (A) (A) (A) (A) (A) (A) (A) (A) (A) (A) (A)
                 (A) (A) (A) (A) (A) (A) (A) (A) (A) (A) (A) (A)
                 (A) (A) (A) (A) (A) (A) (A) (A) (A) (A) (A) (A)
                 (A) (A) (A) (A) (A) (A) (A) (A) (A) (A) (A) (A)
                 (A) (A) (A) (A) (A) (A) (A) (A) (A) (A) (A) (A)
                 (A) (A) (A) (A) (A) (A) (A) (A) (A) (A) (A) (A)
                 (A) (A) (A) (A) (A) (A) (A) (A) (A) (A) (A) (A)
                 (A) (A) (A) (A) (A) (A) (A) (A) (A) (A) (A) (A)
                 (A) (A) (A) (A) (A) (A) (A) (A) (A) (A) (A) (A)
                 (A) (A) (A) (A) (A) (A) (A) (A) (A) (A) (A) (A)
                 (A) (A) (A) (A) (A) (A) (A) (A) (A) (A) (A) (A)
                 (A) (A) (A) (A) (A) (A) (A) (A) (A) (A) (A) (A)
                 (A) (A) (A) (A) (A) (A) (A) (A) (A) (A) (A) (A)
                 (A) (A) (A) (A) (A) (A) (A) (A) (A) (A) (A) (A)
                 (A) (A) (A) (A) (A) (A) (A) (A) (A) (A) (A) (A)
                 (A) (A) (A) (A) (A) (A) (A) (A) (A) (A) (A) (A)
                 (A) (A) (A) (A) (A) (A) (A) (A) (A) (A) (A) (A)
                 (A) (A) (A) (A) (A) (A) (A) (A) (A) (A) (A) (A)
                 (A) (A) (A) (A) (A) (A) (A) (A) (A) (A) (A) (A)
                 (A) (A) (A) (A) (A) (A) (A) (A) (A) (A) (A) (A)
                 (A) (A) (A) (A) (A) (A) (A) (A) (A) (A) (A) (A)
                 (A) (A) (A) (A) (A) (A) (A) (A) (A) (A) (A) (A)
                 (A) (A) (A) (A) (A) (A) (A) (A) (A) (A) (A) (A)
                 (A) (A) (A) (A) (A) (A) (A)
 The electronic state is 1-A.
 Alpha  occ. eigenvalues --  -19.21168 -19.20426 -19.20361 -19.20197 -19.19702
 Alpha  occ. eigenvalues --  -19.19243 -19.16085 -14.44649 -14.44096 -14.40179
 Alpha  occ. eigenvalues --  -10.31828 -10.31558 -10.31192 -10.29958 -10.29828
 Alpha  occ. eigenvalues --  -10.29665 -10.29398 -10.29141 -10.29018 -10.28662
 Alpha  occ. eigenvalues --  -10.28538 -10.28531 -10.27887 -10.27725 -10.27282
 Alpha  occ. eigenvalues --  -10.27253 -10.26341 -10.25814 -10.23921 -10.23302
 Alpha  occ. eigenvalues --  -10.23022 -10.22979 -10.22947 -10.22738 -10.22729
 Alpha  occ. eigenvalues --  -10.22437 -10.22403 -10.22257 -10.22162 -10.22051
 Alpha  occ. eigenvalues --  -10.21809 -10.21723 -10.21386  -6.81676  -6.80082
 Alpha  occ. eigenvalues --   -6.78858  -3.64380  -2.07397  -2.06014  -2.05127
 Alpha  occ. eigenvalues --   -1.06833  -1.06302  -1.05388  -1.01966  -0.99869
 Alpha  occ. eigenvalues --   -0.99392  -0.99240  -0.98496  -0.96793  -0.91609
 Alpha  occ. eigenvalues --   -0.83705  -0.82709  -0.82107  -0.80902  -0.80401
 Alpha  occ. eigenvalues --   -0.79691  -0.77081  -0.76623  -0.75302  -0.74858
 Alpha  occ. eigenvalues --   -0.74145  -0.70790  -0.70417  -0.69692  -0.69563
 Alpha  occ. eigenvalues --   -0.68290  -0.68012  -0.67673  -0.67310  -0.67127
 Alpha  occ. eigenvalues --   -0.66920  -0.63807  -0.62881  -0.62203  -0.61592
 Alpha  occ. eigenvalues --   -0.60808  -0.60605  -0.57056  -0.55150  -0.54621
 Alpha  occ. eigenvalues --   -0.54330  -0.53934  -0.53316  -0.52739  -0.52603
 Alpha  occ. eigenvalues --   -0.52506  -0.51171  -0.50258  -0.48984  -0.48897
 Alpha  occ. eigenvalues --   -0.48246  -0.47748  -0.47320  -0.46913  -0.46503
 Alpha  occ. eigenvalues --   -0.46395  -0.46114  -0.45712  -0.45388  -0.45298
 Alpha  occ. eigenvalues --   -0.44851  -0.44762  -0.44689  -0.44355  -0.44201
 Alpha  occ. eigenvalues --   -0.43762  -0.43675  -0.43467  -0.42998  -0.42813
 Alpha  occ. eigenvalues --   -0.42074  -0.41815  -0.40423  -0.40375  -0.40142
 Alpha  occ. eigenvalues --   -0.40077  -0.40034  -0.39700  -0.39633  -0.39530
 Alpha  occ. eigenvalues --   -0.39430  -0.39296  -0.39003  -0.38912  -0.38597
 Alpha  occ. eigenvalues --   -0.38529  -0.38131  -0.37884  -0.37745  -0.37363
 Alpha  occ. eigenvalues --   -0.37019  -0.36882  -0.36721  -0.36571  -0.36495
 Alpha  occ. eigenvalues --   -0.36405  -0.35974  -0.35791  -0.35586  -0.35344
 Alpha  occ. eigenvalues --   -0.35303  -0.35142  -0.34918  -0.34436  -0.34260
 Alpha  occ. eigenvalues --   -0.34127  -0.33871  -0.33014  -0.32693  -0.32577
 Alpha  occ. eigenvalues --   -0.32162  -0.32010  -0.31321  -0.31206  -0.31102
 Alpha  occ. eigenvalues --   -0.30749  -0.30517  -0.30244  -0.29683  -0.29269
 Alpha  occ. eigenvalues --   -0.27881  -0.26695  -0.26296  -0.25871  -0.25785
 Alpha  occ. eigenvalues --   -0.25643  -0.24788  -0.23496  -0.23307  -0.22000
 Alpha  occ. eigenvalues --   -0.17719
 Alpha virt. eigenvalues --   -0.06214  -0.03175  -0.02113   0.02501   0.02847
 Alpha virt. eigenvalues --    0.04452   0.05697   0.06132   0.06529   0.07602
 Alpha virt. eigenvalues --    0.08172   0.08467   0.09480   0.09998   0.10349
 Alpha virt. eigenvalues --    0.10553   0.11261   0.11653   0.11953   0.12313
 Alpha virt. eigenvalues --    0.12583   0.12857   0.13221   0.13492   0.13939
 Alpha virt. eigenvalues --    0.14294   0.14433   0.14662   0.14961   0.15161
 Alpha virt. eigenvalues --    0.15283   0.15447   0.15676   0.15872   0.16081
 Alpha virt. eigenvalues --    0.16154   0.16426   0.16617   0.17046   0.17117
 Alpha virt. eigenvalues --    0.17200   0.17296   0.17483   0.17661   0.17778
 Alpha virt. eigenvalues --    0.17991   0.18118   0.18445   0.18592   0.19046
 Alpha virt. eigenvalues --    0.19188   0.19422   0.19641   0.19815   0.19963
 Alpha virt. eigenvalues --    0.20203   0.20242   0.20426   0.20554   0.20950
 Alpha virt. eigenvalues --    0.21062   0.21186   0.21723   0.21815   0.22175
 Alpha virt. eigenvalues --    0.22322   0.22519   0.22807   0.23116   0.23684
 Alpha virt. eigenvalues --    0.23817   0.24121   0.24267   0.24702   0.24845
 Alpha virt. eigenvalues --    0.25109   0.25425   0.25708   0.26130   0.26200
 Alpha virt. eigenvalues --    0.26342   0.26605   0.26724   0.27087   0.27256
 Alpha virt. eigenvalues --    0.27555   0.27695   0.28108   0.28404   0.29029
 Alpha virt. eigenvalues --    0.29101   0.29752   0.30037   0.30237   0.30606
 Alpha virt. eigenvalues --    0.30920   0.31440   0.31579   0.32480   0.33214
 Alpha virt. eigenvalues --    0.33566   0.34764   0.35201   0.35748   0.36202
 Alpha virt. eigenvalues --    0.36713   0.37356   0.37891   0.39021   0.39175
 Alpha virt. eigenvalues --    0.40173   0.41073   0.41853   0.42781   0.44235
 Alpha virt. eigenvalues --    0.46798   0.47382   0.47613   0.49026   0.49176
 Alpha virt. eigenvalues --    0.49902   0.50269   0.50626   0.50743   0.51194
 Alpha virt. eigenvalues --    0.51314   0.51538   0.52415   0.52858   0.53153
 Alpha virt. eigenvalues --    0.53658   0.53849   0.54457   0.55223   0.55405
 Alpha virt. eigenvalues --    0.55776   0.56002   0.56647   0.56803   0.57167
 Alpha virt. eigenvalues --    0.57541   0.57867   0.57930   0.58325   0.58576
 Alpha virt. eigenvalues --    0.58631   0.58914   0.59053   0.59065   0.59605
 Alpha virt. eigenvalues --    0.59737   0.60039   0.60074   0.60616   0.60883
 Alpha virt. eigenvalues --    0.61062   0.61498   0.61600   0.62166   0.62324
 Alpha virt. eigenvalues --    0.62664   0.62900   0.63388   0.63865   0.63919
 Alpha virt. eigenvalues --    0.64496   0.64668   0.65180   0.65708   0.66170
 Alpha virt. eigenvalues --    0.66359   0.66897   0.67228   0.67461   0.67700
 Alpha virt. eigenvalues --    0.68306   0.68561   0.69229   0.69605   0.69863
 Alpha virt. eigenvalues --    0.70268   0.70676   0.70775   0.71469   0.71974
 Alpha virt. eigenvalues --    0.72199   0.72444   0.72757   0.73138   0.73442
 Alpha virt. eigenvalues --    0.73623   0.73923   0.74203   0.74620   0.74884
 Alpha virt. eigenvalues --    0.75568   0.76223   0.76328   0.77157   0.77270
 Alpha virt. eigenvalues --    0.77567   0.78349   0.78512   0.79086   0.79285
 Alpha virt. eigenvalues --    0.79808   0.80272   0.80927   0.81278   0.81630
 Alpha virt. eigenvalues --    0.82099   0.82249   0.82401   0.82543   0.83140
 Alpha virt. eigenvalues --    0.83386   0.83616   0.84134   0.84254   0.84708
 Alpha virt. eigenvalues --    0.84888   0.85301   0.85424   0.85578   0.85925
 Alpha virt. eigenvalues --    0.86214   0.86279   0.86732   0.86977   0.87176
 Alpha virt. eigenvalues --    0.87315   0.87620   0.87997   0.88045   0.88390
 Alpha virt. eigenvalues --    0.88819   0.89183   0.89296   0.89593   0.89756
 Alpha virt. eigenvalues --    0.89951   0.90149   0.90344   0.90679   0.90769
 Alpha virt. eigenvalues --    0.90817   0.91014   0.91267   0.91618   0.91920
 Alpha virt. eigenvalues --    0.92104   0.92552   0.92969   0.93489   0.93719
 Alpha virt. eigenvalues --    0.94348   0.94521   0.95047   0.95238   0.95606
 Alpha virt. eigenvalues --    0.95639   0.95974   0.96274   0.96359   0.96679
 Alpha virt. eigenvalues --    0.97079   0.97176   0.97609   0.98010   0.98152
 Alpha virt. eigenvalues --    0.98823   0.99237   1.00004   1.00376   1.00601
 Alpha virt. eigenvalues --    1.00951   1.01718   1.02821   1.03262   1.03856
 Alpha virt. eigenvalues --    1.04410   1.04562   1.05373   1.05837   1.06518
 Alpha virt. eigenvalues --    1.07010   1.07821   1.08342   1.09050   1.09326
 Alpha virt. eigenvalues --    1.09652   1.11639   1.11976   1.12405   1.12782
 Alpha virt. eigenvalues --    1.12924   1.14099   1.14714   1.15535   1.15970
 Alpha virt. eigenvalues --    1.16323   1.16995   1.17741   1.18388   1.18893
 Alpha virt. eigenvalues --    1.19311   1.19389   1.20149   1.20651   1.21473
 Alpha virt. eigenvalues --    1.22212   1.22395   1.22797   1.22961   1.23698
 Alpha virt. eigenvalues --    1.24323   1.24789   1.25288   1.26354   1.28137
 Alpha virt. eigenvalues --    1.28352   1.28685   1.29947   1.30323   1.31272
 Alpha virt. eigenvalues --    1.31863   1.32458   1.33067   1.33598   1.34413
 Alpha virt. eigenvalues --    1.35830   1.36180   1.36628   1.37632   1.37846
 Alpha virt. eigenvalues --    1.39300   1.39809   1.40330   1.41265   1.41441
 Alpha virt. eigenvalues --    1.42771   1.43584   1.44042   1.44131   1.44758
 Alpha virt. eigenvalues --    1.45457   1.46075   1.46361   1.46448   1.46721
 Alpha virt. eigenvalues --    1.47507   1.47633   1.48041   1.48598   1.48748
 Alpha virt. eigenvalues --    1.49486   1.50294   1.50695   1.51926   1.52548
 Alpha virt. eigenvalues --    1.52844   1.53809   1.55550   1.56525   1.57777
 Alpha virt. eigenvalues --    1.58080   1.59166   1.60748   1.61451   1.61970
 Alpha virt. eigenvalues --    1.62874   1.63454   1.64616   1.65161   1.66082
 Alpha virt. eigenvalues --    1.66285   1.66857   1.67405   1.67794   1.67897
 Alpha virt. eigenvalues --    1.69634   1.70075   1.70914   1.72138   1.72751
 Alpha virt. eigenvalues --    1.73718   1.74456   1.75786   1.75965   1.76742
 Alpha virt. eigenvalues --    1.76857   1.78007   1.78749   1.78991   1.79581
 Alpha virt. eigenvalues --    1.79836   1.80417   1.80880   1.81482   1.82471
 Alpha virt. eigenvalues --    1.82517   1.83127   1.83534   1.83710   1.84394
 Alpha virt. eigenvalues --    1.85096   1.85846   1.86199   1.86363   1.86381
 Alpha virt. eigenvalues --    1.86869   1.87796   1.88278   1.88428   1.88992
 Alpha virt. eigenvalues --    1.90247   1.90852   1.90995   1.91261   1.91602
 Alpha virt. eigenvalues --    1.92029   1.92066   1.92229   1.92779   1.93109
 Alpha virt. eigenvalues --    1.93251   1.93417   1.93953   1.93966   1.94213
 Alpha virt. eigenvalues --    1.94482   1.95301   1.95882   1.96405   1.97239
 Alpha virt. eigenvalues --    1.98093   1.98329   1.99241   1.99621   2.00235
 Alpha virt. eigenvalues --    2.00516   2.01491   2.01919   2.02234   2.03005
 Alpha virt. eigenvalues --    2.03527   2.03618   2.04355   2.04803   2.06015
 Alpha virt. eigenvalues --    2.06152   2.06596   2.06710   2.07204   2.07388
 Alpha virt. eigenvalues --    2.07933   2.08407   2.09562   2.10042   2.10369
 Alpha virt. eigenvalues --    2.10960   2.11519   2.11981   2.12713   2.13055
 Alpha virt. eigenvalues --    2.13688   2.13801   2.14120   2.14641   2.15005
 Alpha virt. eigenvalues --    2.15574   2.16309   2.16394   2.16675   2.17049
 Alpha virt. eigenvalues --    2.17903   2.18411   2.18557   2.18999   2.19325
 Alpha virt. eigenvalues --    2.19421   2.19898   2.20276   2.20492   2.21114
 Alpha virt. eigenvalues --    2.21291   2.21503   2.22226   2.22385   2.23265
 Alpha virt. eigenvalues --    2.23478   2.23729   2.24103   2.24343   2.25555
 Alpha virt. eigenvalues --    2.25825   2.26218   2.26461   2.26530   2.27123
 Alpha virt. eigenvalues --    2.27348   2.27887   2.28402   2.28613   2.29267
 Alpha virt. eigenvalues --    2.30380   2.31282   2.31884   2.32488   2.32913
 Alpha virt. eigenvalues --    2.33068   2.33495   2.33851   2.34299   2.35409
 Alpha virt. eigenvalues --    2.36318   2.37136   2.37978   2.38816   2.39055
 Alpha virt. eigenvalues --    2.39789   2.40465   2.40721   2.43695   2.44069
 Alpha virt. eigenvalues --    2.44582   2.46662   2.47600   2.48045   2.48603
 Alpha virt. eigenvalues --    2.48832   2.49089   2.49320   2.49726   2.50578
 Alpha virt. eigenvalues --    2.51529   2.52922   2.54014   2.55949   2.57879
 Alpha virt. eigenvalues --    2.58763   2.60088   2.61121   2.61508   2.62430
 Alpha virt. eigenvalues --    2.62796   2.63664   2.64276   2.64643   2.65129
 Alpha virt. eigenvalues --    2.65782   2.68250   2.69363   2.70217   2.70821
 Alpha virt. eigenvalues --    2.72290   2.73524   2.77700   2.78121   2.78192
 Alpha virt. eigenvalues --    2.78425   2.79278   2.80030   2.80531   2.80706
 Alpha virt. eigenvalues --    2.81241   2.81570   2.81804   2.82665   2.84375
 Alpha virt. eigenvalues --    2.84751   2.85115   2.86756   2.88564   2.89871
 Alpha virt. eigenvalues --    2.90927   2.93909   2.94994   2.96673   2.97152
 Alpha virt. eigenvalues --    2.97735   2.99503   3.02398   3.03690   3.05442
 Alpha virt. eigenvalues --    3.06804   3.09633   3.11110   3.12252   3.14020
 Alpha virt. eigenvalues --    3.22099   3.25740   3.31269   3.45246  14.12391
          Condensed to atoms (all electrons):
 Mulliken charges:
               1
     1  C    0.312615
     2  C    0.105061
     3  C   -0.153579
     4  C   -0.130299
     5  C   -0.179764
     6  C    0.288325
     7  C    0.036671
     8  C   -0.173381
     9  C   -0.146990
    10  C   -0.186294
    11  H    0.213736
    12  H    0.177858
    13  H    0.162832
    14  H    0.222579
    15  H    0.179028
    16  H    0.169762
    17  N   -0.530526
    18  N   -0.474285
    19  Ir  -0.167117
    20  O   -0.514770
    21  O   -0.501558
    22  O   -0.533408
    23  B    0.512205
    24  B    0.492149
    25  B    0.441440
    26  O   -0.504528
    27  O   -0.524247
    28  C    0.291134
    29  C    0.300165
    30  C    0.299739
    31  C    0.289116
    32  C    0.293174
    33  C    0.298212
    34  O   -0.515722
    35  C   -0.511862
    36  H    0.168701
    37  H    0.176422
    38  H    0.146525
    39  C   -0.516712
    40  H    0.183014
    41  H    0.156919
    42  H    0.148334
    43  C   -0.500510
    44  H    0.187488
    45  H    0.154998
    46  H    0.143256
    47  C   -0.505543
    48  H    0.158397
    49  H    0.148884
    50  H    0.169359
    51  C   -0.509691
    52  H    0.173884
    53  H    0.143989
    54  H    0.185538
    55  C   -0.514550
    56  H    0.148991
    57  H    0.172210
    58  H    0.169180
    59  C   -0.510089
    60  H    0.167826
    61  H    0.167505
    62  H    0.152609
    63  C   -0.509769
    64  H    0.151732
    65  H    0.173649
    66  H    0.167477
    67  C   -0.513913
    68  H    0.150471
    69  H    0.171365
    70  H    0.174193
    71  C   -0.507986
    72  H    0.173871
    73  H    0.148927
    74  H    0.183365
    75  C   -0.514215
    76  H    0.176154
    77  H    0.153561
    78  H    0.166171
    79  C   -0.509395
    80  H    0.173890
    81  H    0.163192
    82  H    0.156676
    83  H    0.199547
    84  C    0.576035
    85  O   -0.527610
    86  C   -0.400141
    87  H    0.148457
    88  H    0.170563
    89  C   -0.334781
    90  H    0.217559
    91  H    0.156145
    92  N   -0.362163
    93  C   -0.371875
    94  H    0.156847
    95  H    0.201997
    96  H    0.164699
    97  C   -0.473181
    98  H    0.181853
    99  H    0.156940
   100  H    0.179314
   101  H    0.179449
   102  H    0.146528
 Sum of Mulliken charges =  -0.00000
 Mulliken charges with hydrogens summed into heavy atoms:
               1
     1  C    0.312615
     2  C    0.318797
     3  C    0.025870
     4  C    0.047559
     5  C   -0.016932
     6  C    0.288325
     7  C    0.259249
     8  C    0.005933
     9  C    0.032038
    10  C   -0.016533
    17  N   -0.530526
    18  N   -0.474285
    19  Ir   0.032430
    20  O   -0.514770
    21  O   -0.501558
    22  O   -0.533408
    23  B    0.512205
    24  B    0.492149
    25  B    0.441440
    26  O   -0.504528
    27  O   -0.524247
    28  C    0.291134
    29  C    0.300165
    30  C    0.299739
    31  C    0.289116
    32  C    0.293174
    33  C    0.298212
    34  O   -0.515722
    35  C   -0.020214
    39  C   -0.028445
    43  C   -0.014768
    47  C   -0.028904
    51  C   -0.006279
    55  C   -0.024169
    59  C   -0.022149
    63  C   -0.016911
    67  C   -0.017884
    71  C   -0.001823
    75  C   -0.018330
    79  C   -0.015637
    84  C    0.576035
    85  O   -0.527610
    86  C   -0.081121
    89  C    0.038923
    92  N   -0.362163
    93  C    0.151669
    97  C    0.012140
 APT charges:
               1
     1  C    0.141598
     2  C    0.066034
     3  C   -0.024016
     4  C    0.100603
     5  C   -0.170483
     6  C    0.214497
     7  C    0.055393
     8  C   -0.040634
     9  C    0.095799
    10  C   -0.199706
    11  H    0.113365
    12  H    0.029308
    13  H    0.038325
    14  H    0.093622
    15  H    0.027156
    16  H    0.041825
    17  N   -0.088270
    18  N   -0.152829
    19  Ir  -1.013880
    20  O   -0.973959
    21  O   -0.945459
    22  O   -1.039751
    23  B    1.284794
    24  B    1.292724
    25  B    1.442216
    26  O   -0.996317
    27  O   -0.989446
    28  C    0.489986
    29  C    0.499186
    30  C    0.523309
    31  C    0.502268
    32  C    0.466657
    33  C    0.463986
    34  O   -0.957039
    35  C   -0.009247
    36  H   -0.000467
    37  H    0.004502
    38  H   -0.020122
    39  C   -0.034971
    40  H    0.017062
    41  H   -0.005519
    42  H   -0.022815
    43  C   -0.041569
    44  H    0.028625
    45  H   -0.001490
    46  H   -0.032006
    47  C    0.010243
    48  H   -0.011569
    49  H   -0.022182
    50  H   -0.000022
    51  C   -0.031630
    52  H    0.001456
    53  H   -0.026014
    54  H    0.014593
    55  C   -0.004927
    56  H   -0.016574
    57  H   -0.001723
    58  H   -0.001661
    59  C    0.007122
    60  H    0.002070
    61  H   -0.004158
    62  H   -0.021150
    63  C   -0.029217
    64  H   -0.019898
    65  H   -0.005937
    66  H   -0.003708
    67  C   -0.015581
    68  H   -0.016042
    69  H    0.004818
    70  H    0.008514
    71  C   -0.036716
    72  H    0.009101
    73  H   -0.025303
    74  H    0.008841
    75  C   -0.013666
    76  H    0.006887
    77  H   -0.015744
    78  H   -0.003280
    79  C   -0.043610
    80  H    0.010882
    81  H    0.001138
    82  H   -0.018615
    83  H    0.072345
    84  C    0.825890
    85  O   -0.684149
    86  C    0.025784
    87  H   -0.029556
    88  H   -0.031604
    89  C    0.290186
    90  H    0.014942
    91  H   -0.064561
    92  N   -0.721852
    93  C    0.246204
    94  H   -0.015771
    95  H    0.043155
    96  H   -0.054668
    97  C    0.069198
    98  H    0.008255
    99  H   -0.002131
   100  H    0.034800
   101  H    0.041182
   102  H   -0.037234
 Sum of APT charges =  -0.00000
 APT charges with hydrogens summed into heavy atoms:
               1
     1  C    0.141598
     2  C    0.179400
     3  C    0.017166
     4  C    0.129911
     5  C   -0.132158
     6  C    0.214497
     7  C    0.149015
     8  C   -0.005834
     9  C    0.122955
    10  C   -0.157881
    17  N   -0.088270
    18  N   -0.152829
    19  Ir  -0.941535
    20  O   -0.973959
    21  O   -0.945459
    22  O   -1.039751
    23  B    1.284794
    24  B    1.292724
    25  B    1.442216
    26  O   -0.996317
    27  O   -0.989446
    28  C    0.489986
    29  C    0.499186
    30  C    0.523309
    31  C    0.502268
    32  C    0.466657
    33  C    0.463986
    34  O   -0.957039
    35  C   -0.025335
    39  C   -0.046242
    43  C   -0.046440
    47  C   -0.023530
    51  C   -0.041595
    55  C   -0.024885
    59  C   -0.016116
    63  C   -0.058761
    67  C   -0.018292
    71  C   -0.044077
    75  C   -0.025802
    79  C   -0.050204
    84  C    0.825890
    85  O   -0.684149
    86  C   -0.035377
    89  C    0.240568
    92  N   -0.721852
    93  C    0.218920
    97  C    0.038088
 Electronic spatial extent (au):  <R**2>=          23934.1307
 Charge=             -0.0000 electrons
 Dipole moment (field-independent basis, Debye):
    X=              3.0426    Y=             -1.2802    Z=             -3.5270  Tot=              4.8307
 Quadrupole moment (field-independent basis, Debye-Ang):
   XX=           -270.7175   YY=           -268.0787   ZZ=           -298.5227
   XY=             -4.7009   XZ=            -17.3834   YZ=             -6.2659
 Traceless Quadrupole moment (field-independent basis, Debye-Ang):
   XX=              8.3888   YY=             11.0276   ZZ=            -19.4164
   XY=             -4.7009   XZ=            -17.3834   YZ=             -6.2659
 Octapole moment (field-independent basis, Debye-Ang**2):
  XXX=             82.0252  YYY=             28.6093  ZZZ=            -59.5247  XYY=             15.8835
  XXY=            -22.4515  XXZ=            -56.8242  XZZ=             -6.7334  YZZ=             -1.9156
  YYZ=             -1.4836  XYZ=             -8.6492
 Hexadecapole moment (field-independent basis, Debye-Ang**3):
 XXXX=         -13045.2956 YYYY=         -11230.8224 ZZZZ=          -6915.8622 XXXY=            -96.4495
 XXXZ=           -307.2081 YYYX=           -133.8191 YYYZ=           -130.9155 ZZZX=           -214.8030
 ZZZY=            -93.5929 XXYY=          -4024.0453 XXZZ=          -3262.8659 YYZZ=          -2993.1293
 XXYZ=             27.8862 YYXZ=            142.3389 ZZXY=             56.2842
 N-N= 7.454671238866D+03 E-N=-1.991429840516D+04  KE= 2.074767485183D+03
  Exact polarizability:     497.932     -25.375     462.483     -25.137     -37.761     424.775
 Approx polarizability:     688.804     -47.592     664.507     -51.711     -87.216     671.950
   1 Symmetry operations used in ECPInt.
 ECPInt:  NShTT=   45753 NPrTT=  276657 LenC2=   36256 LenP2D=  113280.
 LDataN:  DoStor=T MaxTD1= 8 Len=  415
 Calling FoFJK, ICntrl=    100127 FMM=F ISym2X=0 I1Cent= 0 IOpClX= 0 NMat=1 NMatS=1 NMatT=0.
 Defaulting to unpruned grid for atomic number  77.
 Defaulting to unpruned grid for atomic number  77.
 Defaulting to unpruned grid for atomic number  77.
 Defaulting to unpruned grid for atomic number  77.
 Defaulting to unpruned grid for atomic number  77.
 Defaulting to unpruned grid for atomic number  77.
 Defaulting to unpruned grid for atomic number  77.
 Defaulting to unpruned grid for atomic number  77.
 Defaulting to unpruned grid for atomic number  77.
 Defaulting to unpruned grid for atomic number  77.
 Defaulting to unpruned grid for atomic number  77.
 Defaulting to unpruned grid for atomic number  77.
 Defaulting to unpruned grid for atomic number  77.
 Defaulting to unpruned grid for atomic number  77.
 Defaulting to unpruned grid for atomic number  77.
 Defaulting to unpruned grid for atomic number  77.
 Full mass-weighted force constant matrix:
 Low frequencies ---  -11.1909   -6.6005   -0.0006   -0.0004    0.0002    6.4721
 Low frequencies ---   22.1171   27.4728   34.6957
 Diagonal vibrational polarizability:
       88.4705243     105.3071153     103.3611528
 Harmonic frequencies (cm**-1), IR intensities (KM/Mole), Raman scattering
 activities (A**4/AMU), depolarization ratios for plane and unpolarized
 incident light, reduced masses (AMU), force constants (mDyne/A),
 and normal coordinates:
                      1                      2                      3
                      A                      A                      A
 Frequencies --     21.7228                27.2309                34.5584
 Red. masses --      4.5954                 4.6437                 3.9390
 Frc consts  --      0.0013                 0.0020                 0.0028
 IR Inten    --      0.9503                 0.7809                 0.2072
  Atom AN      X      Y      Z        X      Y      Z        X      Y      Z
     1   6     0.02   0.00  -0.00     0.02   0.03  -0.05    -0.02  -0.02   0.01
     2   6    -0.02  -0.06  -0.05     0.03  -0.00  -0.05    -0.03   0.00   0.01
     3   6    -0.02  -0.07  -0.07     0.05   0.01  -0.05    -0.06  -0.02   0.00
     4   6    -0.01  -0.06  -0.06     0.06   0.03  -0.06    -0.07  -0.05  -0.00
     5   6     0.01  -0.02  -0.02     0.04   0.05  -0.06    -0.05  -0.05   0.00
     6   6     0.05   0.05   0.05     0.01   0.05  -0.05    -0.00  -0.01   0.03
     7   6     0.06   0.05   0.05    -0.02   0.05  -0.03     0.04   0.00   0.03
     8   6     0.11   0.13   0.12    -0.02   0.07  -0.04     0.05   0.01   0.06
     9   6     0.14   0.18   0.16    -0.01   0.07  -0.05     0.05   0.01   0.07
    10   6     0.11   0.13   0.12     0.00   0.06  -0.06     0.02  -0.00   0.06
    11   1    -0.03  -0.08  -0.06     0.03  -0.02  -0.04    -0.03   0.02   0.01
    12   1    -0.02  -0.07  -0.08     0.07   0.04  -0.06    -0.09  -0.07  -0.01
    13   1     0.01  -0.01  -0.02     0.05   0.07  -0.06    -0.06  -0.07  -0.01
    14   1     0.03   0.02   0.01    -0.03   0.04  -0.02     0.04   0.01   0.02
    15   1     0.18   0.24   0.22    -0.01   0.09  -0.06     0.06   0.02   0.10
    16   1     0.13   0.17   0.16     0.01   0.07  -0.07     0.01  -0.00   0.07
    17   7     0.00  -0.03  -0.02     0.02   0.01  -0.05    -0.02  -0.00   0.01
    18   7     0.03   0.02   0.01    -0.01   0.04  -0.04     0.01  -0.01   0.02
    19  77     0.00  -0.02  -0.01    -0.00  -0.00  -0.03    -0.00   0.00  -0.00
    20   8     0.02  -0.02  -0.00     0.03   0.01  -0.01    -0.01   0.04  -0.00
    21   8    -0.04  -0.01   0.00    -0.06  -0.03   0.01    -0.05   0.00   0.02
    22   8    -0.03  -0.03  -0.05     0.05   0.02   0.02     0.06   0.03   0.07
    23   5    -0.02  -0.01  -0.00    -0.02  -0.01  -0.00    -0.01  -0.00   0.01
    24   5     0.01  -0.01  -0.00     0.01  -0.01  -0.02    -0.01   0.01  -0.01
    25   5    -0.00  -0.02  -0.03     0.00   0.00  -0.02     0.00   0.01   0.01
    26   8     0.02  -0.01  -0.01    -0.03  -0.01  -0.05    -0.05  -0.02  -0.03
    27   8     0.01   0.02   0.01    -0.00  -0.02   0.00    -0.01  -0.03  -0.02
    28   6     0.02   0.03   0.03     0.01  -0.01   0.01    -0.02  -0.02  -0.02
    29   6     0.02   0.01   0.01     0.04   0.01   0.01    -0.01   0.02  -0.00
    30   6    -0.02  -0.03  -0.06     0.05   0.02   0.03     0.04   0.02   0.07
    31   6    -0.00  -0.02  -0.03     0.02   0.01  -0.04    -0.02  -0.01  -0.03
    32   6    -0.06   0.01   0.02    -0.05  -0.04   0.05    -0.03  -0.01   0.03
    33   6    -0.06   0.00   0.01    -0.00  -0.03   0.05     0.01  -0.01   0.01
    34   8    -0.03  -0.00   0.01     0.01  -0.01   0.02     0.02  -0.01   0.01
    35   6     0.05   0.01   0.02     0.06   0.04   0.01    -0.03   0.05  -0.01
    36   1     0.05  -0.00   0.01     0.07   0.05   0.01    -0.02   0.09   0.00
    37   1     0.07   0.01   0.02     0.05   0.04  -0.01    -0.05   0.06  -0.04
    38   1     0.05   0.03   0.03     0.06   0.04   0.03    -0.02   0.04  -0.02
    39   6    -0.01   0.01   0.01     0.04   0.01   0.04     0.03   0.02   0.04
    40   1    -0.03   0.01   0.01     0.02  -0.01   0.05     0.04  -0.00   0.05
    41   1    -0.01  -0.00   0.00     0.05   0.03   0.04     0.03   0.05   0.05
    42   1    -0.01   0.03   0.03     0.05   0.01   0.07     0.03   0.01   0.04
    43   6     0.05   0.03   0.03     0.01  -0.00  -0.01    -0.05  -0.02  -0.06
    44   1     0.06   0.01   0.03     0.01   0.00  -0.03    -0.07   0.01  -0.07
    45   1     0.05   0.04   0.04     0.00  -0.02  -0.01    -0.05  -0.05  -0.08
    46   1     0.06   0.04   0.04     0.02   0.01  -0.00    -0.06  -0.02  -0.07
    47   6     0.00   0.05   0.04     0.01  -0.02   0.05     0.00  -0.06  -0.01
    48   1    -0.02   0.05   0.03     0.01  -0.03   0.06     0.02  -0.07   0.02
    49   1     0.01   0.06   0.05     0.03  -0.01   0.06    -0.00  -0.05  -0.01
    50   1     0.00   0.06   0.05    -0.00  -0.04   0.05    -0.01  -0.09  -0.03
    51   6    -0.05   0.03   0.03    -0.05  -0.06   0.08    -0.03  -0.04   0.06
    52   1    -0.04   0.03   0.03    -0.08  -0.08   0.08    -0.06  -0.04   0.07
    53   1    -0.06   0.04   0.04    -0.04  -0.08   0.12    -0.02  -0.06   0.07
    54   1    -0.03   0.03   0.03    -0.03  -0.05   0.08    -0.02  -0.05   0.06
    55   6    -0.08   0.00   0.02    -0.08  -0.06   0.05    -0.04   0.00   0.02
    56   1    -0.10   0.01   0.03    -0.06  -0.07   0.08    -0.02  -0.01   0.03
    57   1    -0.08   0.00   0.02    -0.11  -0.07   0.06    -0.07  -0.00   0.03
    58   1    -0.09  -0.02   0.01    -0.08  -0.04   0.02    -0.04   0.03  -0.00
    59   6    -0.07   0.02   0.03     0.03  -0.03   0.09     0.04  -0.03   0.03
    60   1    -0.07   0.02   0.03     0.06  -0.01   0.09     0.07  -0.03   0.02
    61   1    -0.06   0.03   0.03     0.03  -0.04   0.10     0.04  -0.05   0.06
    62   1    -0.08   0.02   0.03     0.02  -0.05   0.11     0.04  -0.03   0.04
    63   6    -0.08  -0.02   0.00    -0.00  -0.02   0.02     0.02   0.01  -0.02
    64   1    -0.10  -0.01  -0.00    -0.01  -0.02   0.03     0.02   0.01  -0.02
    65   1    -0.07  -0.03   0.00    -0.02  -0.01  -0.00     0.00   0.03  -0.03
    66   1    -0.08  -0.03  -0.00     0.02  -0.01   0.01     0.04   0.01  -0.03
    67   6     0.02  -0.00  -0.04    -0.02  -0.01  -0.03    -0.10  -0.03  -0.04
    68   1     0.01  -0.01  -0.05     0.01   0.00  -0.01    -0.08  -0.03  -0.02
    69   1     0.03   0.01  -0.01    -0.04  -0.01  -0.08    -0.13  -0.06  -0.11
    70   1     0.04   0.01  -0.05    -0.06  -0.03   0.01    -0.16  -0.04   0.02
    71   6    -0.03  -0.04   0.01     0.06   0.04  -0.10     0.06  -0.00  -0.12
    72   1    -0.01  -0.03   0.03     0.03   0.03  -0.15     0.02  -0.03  -0.19
    73   1    -0.04  -0.05   0.00     0.09   0.06  -0.09     0.08   0.01  -0.12
    74   1    -0.04  -0.05   0.01     0.09   0.06  -0.11     0.12   0.02  -0.12
    75   6    -0.06  -0.05  -0.07     0.12   0.05   0.04     0.13   0.06   0.08
    76   1    -0.07  -0.06  -0.05     0.15   0.07  -0.00     0.18   0.08   0.02
    77   1    -0.06  -0.05  -0.08     0.13   0.05   0.04     0.11   0.05   0.08
    78   1    -0.07  -0.06  -0.10     0.15   0.05   0.09     0.16   0.08   0.15
    79   6    -0.00  -0.02  -0.10     0.02  -0.01   0.10    -0.03   0.01   0.17
    80   1     0.02  -0.01  -0.10    -0.03  -0.03   0.09    -0.10  -0.01   0.16
    81   1    -0.02  -0.03  -0.12     0.04  -0.01   0.14     0.00   0.05   0.23
    82   1     0.00  -0.02  -0.11     0.02  -0.01   0.11    -0.06   0.01   0.18
    83   1     0.01  -0.03  -0.02    -0.01   0.00  -0.03     0.01   0.02  -0.01
    84   6     0.00  -0.01  -0.00    -0.06  -0.03   0.08     0.03   0.01  -0.08
    85   8     0.01  -0.05  -0.04    -0.11  -0.02   0.07     0.06  -0.01  -0.08
    86   6     0.00   0.03   0.01    -0.05  -0.05   0.14     0.03   0.02  -0.12
    87   1     0.02   0.09   0.00    -0.00  -0.05   0.15    -0.00   0.04  -0.13
    88   1    -0.02   0.03   0.07    -0.05  -0.05   0.16     0.03   0.02  -0.11
    89   6    -0.01  -0.03   0.01    -0.03  -0.01  -0.01     0.01   0.01  -0.01
    90   1    -0.01  -0.06  -0.00    -0.07  -0.00  -0.02     0.04  -0.00  -0.01
    91   1    -0.03  -0.04   0.02    -0.02  -0.00  -0.02     0.00   0.00   0.01
    92   7    -0.01   0.00   0.02    -0.02  -0.03   0.04     0.01   0.03  -0.04
    93   6    -0.04   0.06   0.08     0.02  -0.04   0.05    -0.02   0.05  -0.02
    94   1     0.04   0.16   0.14     0.02  -0.07   0.06    -0.01   0.08  -0.02
    95   1    -0.01   0.01   0.02     0.04  -0.01   0.04    -0.02   0.04  -0.02
    96   1    -0.18   0.08   0.12     0.05  -0.06   0.06    -0.04   0.05  -0.01
    97   6     0.01   0.00  -0.03    -0.10  -0.05   0.18     0.06   0.01  -0.16
    98   1    -0.00  -0.06  -0.02    -0.15  -0.05   0.17     0.09  -0.01  -0.15
    99   1     0.03   0.00  -0.09    -0.09  -0.05   0.16     0.05   0.01  -0.16
   100   1     0.13   0.16   0.14    -0.03   0.08  -0.03     0.08   0.02   0.07
   101   1    -0.04  -0.10  -0.09     0.07   0.00  -0.05    -0.07  -0.01   0.00
   102   1     0.01   0.03  -0.02    -0.09  -0.05   0.23     0.05   0.01  -0.19
                      4                      5                      6
                      A                      A                      A
 Frequencies --     38.5433                42.1909                43.8736
 Red. masses --      4.2733                 3.5909                 4.7464
 Frc consts  --      0.0037                 0.0038                 0.0054
 IR Inten    --      0.7975                 0.2432                 0.2509
  Atom AN      X      Y      Z        X      Y      Z        X      Y      Z
     1   6     0.01   0.01  -0.00    -0.02  -0.01   0.02     0.03   0.04   0.06
     2   6    -0.00   0.00  -0.01    -0.03   0.02   0.02    -0.01  -0.00   0.01
     3   6     0.01   0.02  -0.00    -0.05   0.01   0.02     0.02   0.05   0.06
     4   6     0.01   0.03   0.01    -0.05  -0.01   0.02     0.06   0.10   0.12
     5   6     0.01   0.03   0.01    -0.04  -0.03   0.02     0.06   0.09   0.12
     6   6     0.01   0.02   0.00    -0.00  -0.02   0.02     0.02   0.01   0.04
     7   6    -0.01   0.00  -0.02     0.04  -0.01   0.01    -0.03  -0.07  -0.03
     8   6     0.01   0.03   0.01     0.04  -0.03   0.02    -0.02  -0.06  -0.02
     9   6     0.03   0.05   0.03     0.02  -0.04   0.03     0.01  -0.01   0.03
    10   6     0.03   0.05   0.02     0.00  -0.04   0.03     0.03   0.03   0.06
    11   1    -0.01  -0.01  -0.03    -0.02   0.04   0.01    -0.04  -0.04  -0.02
    12   1     0.02   0.04   0.02    -0.07  -0.02   0.03     0.09   0.14   0.17
    13   1     0.02   0.03   0.01    -0.04  -0.04   0.02     0.09   0.13   0.16
    14   1    -0.02  -0.02  -0.03     0.05  -0.00   0.00    -0.05  -0.10  -0.07
    15   1     0.04   0.07   0.05     0.03  -0.05   0.04     0.02  -0.00   0.04
    16   1     0.04   0.07   0.04    -0.01  -0.05   0.03     0.05   0.06   0.10
    17   7    -0.00   0.00  -0.02    -0.01   0.01   0.01    -0.00  -0.00   0.02
    18   7    -0.01  -0.00  -0.02     0.01  -0.01   0.01    -0.01  -0.03  -0.01
    19  77    -0.01  -0.01  -0.03     0.00   0.01  -0.01    -0.01  -0.03  -0.02
    20   8    -0.04   0.01  -0.04     0.00   0.03  -0.01     0.00  -0.07  -0.01
    21   8     0.00  -0.08  -0.00    -0.10   0.05   0.02    -0.07   0.03  -0.01
    22   8    -0.01   0.01   0.01    -0.03   0.00  -0.04     0.05  -0.02   0.02
    23   5    -0.01  -0.03  -0.00    -0.01   0.02  -0.00    -0.04  -0.01  -0.02
    24   5    -0.02  -0.00  -0.04    -0.00   0.01  -0.01    -0.01  -0.03  -0.01
    25   5     0.01   0.00   0.01     0.01   0.01  -0.01     0.01  -0.02  -0.01
    26   8     0.05  -0.00   0.06     0.03   0.02   0.02     0.01  -0.02  -0.02
    27   8    -0.02   0.01  -0.05    -0.00  -0.01  -0.01    -0.01   0.00   0.01
    28   6    -0.03   0.02  -0.06    -0.00  -0.02  -0.01     0.01  -0.01   0.03
    29   6    -0.04   0.03  -0.05     0.01   0.00  -0.01     0.00  -0.06  -0.01
    30   6     0.03   0.02   0.06    -0.01   0.00  -0.03     0.06  -0.01   0.03
    31   6     0.05   0.03   0.12     0.02   0.02   0.03     0.04  -0.00  -0.00
    32   6     0.01  -0.08   0.03    -0.05   0.01   0.03    -0.08   0.04  -0.02
    33   6     0.00  -0.05   0.06     0.07  -0.01  -0.03    -0.05   0.01  -0.05
    34   8    -0.01  -0.01   0.03     0.08  -0.02  -0.02    -0.04  -0.02  -0.03
    35   6    -0.05   0.05  -0.06    -0.00   0.00  -0.01     0.03  -0.10   0.01
    36   1    -0.07   0.05  -0.04     0.01   0.02  -0.01     0.03  -0.14  -0.01
    37   1    -0.05   0.05  -0.07    -0.03   0.01  -0.02     0.05  -0.11   0.04
    38   1    -0.06   0.06  -0.06    -0.00  -0.02  -0.01     0.03  -0.09   0.02
    39   6    -0.06   0.03  -0.02     0.04  -0.00  -0.01    -0.03  -0.06  -0.05
    40   1    -0.05   0.01  -0.02     0.06  -0.00  -0.01    -0.05  -0.03  -0.07
    41   1    -0.07   0.03  -0.01     0.05   0.02  -0.00    -0.03  -0.09  -0.07
    42   1    -0.06   0.04  -0.03     0.05  -0.02  -0.01    -0.03  -0.04  -0.05
    43   6    -0.03   0.02  -0.08    -0.03  -0.02  -0.02     0.05  -0.01   0.07
    44   1    -0.04   0.02  -0.07    -0.03  -0.00  -0.04     0.06  -0.04   0.07
    45   1    -0.03   0.01  -0.08    -0.05  -0.04  -0.02     0.05   0.02   0.09
    46   1    -0.04   0.03  -0.08    -0.02  -0.03  -0.02     0.06  -0.02   0.08
    47   6    -0.03   0.02  -0.08     0.01  -0.05  -0.01    -0.02   0.03   0.03
    48   1    -0.02   0.01  -0.06     0.02  -0.05   0.01    -0.05   0.04  -0.01
    49   1    -0.04   0.03  -0.09     0.01  -0.04  -0.01    -0.00   0.02   0.03
    50   1    -0.01   0.01  -0.09     0.00  -0.07  -0.02    -0.01   0.07   0.05
    51   6     0.01  -0.08  -0.00    -0.07  -0.08   0.14    -0.07   0.04   0.02
    52   1     0.01  -0.11  -0.03    -0.16  -0.06   0.18    -0.08   0.06   0.04
    53   1     0.01  -0.09   0.02    -0.03  -0.11   0.17    -0.08   0.04   0.01
    54   1    -0.01  -0.05  -0.02    -0.02  -0.11   0.17    -0.05   0.01   0.03
    55   6     0.03  -0.13   0.05    -0.11   0.07  -0.00    -0.11   0.07  -0.04
    56   1     0.03  -0.13   0.07    -0.06   0.04   0.00    -0.11   0.07  -0.05
    57   1     0.03  -0.15   0.02    -0.20   0.08   0.05    -0.12   0.09  -0.02
    58   1     0.03  -0.13   0.07    -0.11   0.14  -0.08    -0.11   0.07  -0.07
    59   6    -0.00  -0.03   0.08     0.16  -0.09   0.00    -0.04  -0.01  -0.06
    60   1    -0.01   0.01   0.11     0.25  -0.10  -0.05    -0.03  -0.03  -0.08
    61   1    -0.01  -0.02   0.04     0.16  -0.15   0.09    -0.04  -0.02  -0.03
    62   1     0.01  -0.06   0.10     0.15  -0.08   0.00    -0.05   0.01  -0.07
    63   6     0.00  -0.06   0.09     0.10   0.07  -0.14    -0.05   0.02  -0.09
    64   1     0.01  -0.07   0.11     0.10   0.09  -0.16    -0.06   0.03  -0.10
    65   1     0.01  -0.07   0.09     0.03   0.14  -0.17    -0.07   0.04  -0.09
    66   1    -0.01  -0.04   0.11     0.18   0.06  -0.18    -0.03   0.02  -0.10
    67   6     0.14   0.01   0.17     0.07   0.02   0.04     0.05  -0.01   0.01
    68   1     0.15   0.04   0.22     0.05   0.02   0.05     0.07  -0.00   0.03
    69   1     0.15   0.03   0.20     0.09   0.03   0.08     0.04  -0.01  -0.00
    70   1     0.17  -0.05   0.15     0.10   0.02   0.01     0.04  -0.04   0.03
    71   6    -0.00   0.10   0.16    -0.03   0.02   0.08     0.06   0.04  -0.03
    72   1     0.01   0.12   0.19    -0.01   0.04   0.12     0.04   0.04  -0.05
    73   1     0.01   0.13   0.21    -0.04   0.02   0.09     0.08   0.05  -0.02
    74   1    -0.06   0.11   0.13    -0.07   0.02   0.07     0.05   0.05  -0.04
    75   6    -0.02   0.05   0.09    -0.07  -0.01  -0.03     0.10   0.01   0.03
    76   1    -0.06   0.08   0.10    -0.10  -0.02  -0.00     0.10   0.02   0.01
[...]
 000969,0.00000799,-0.00000050,-0.00000544,0.00000782,0.00000597,0.0000
 1211,-0.00000667,0.00000505,0.00000325,0.00000180,-0.00000555,-0.00000
 756,0.00000189,-0.00001780,0.00000182,0.00000062,-0.00000117,0.0000042
 7,-0.00000516,-0.00000137,0.00000660,0.00000968,0.00000625,0.00000224,
 -0.00000572,0.00000784,0.00000187,-0.00000471,-0.00000253,0.00000341,-
 0.00000044,-0.00000079,-0.00000286,-0.00000035,-0.00000041,-0.00000207
 ,-0.00000355,0.00000664,0.00000149,0.00000015,-0.00000038,0.00000365,-
 0.00000253,0.00000158,-0.00000177,-0.00000109,-0.00000454,0.00000117,-
 0.00000730,-0.00000439,-0.00000124,0.00000159,-0.00000119,0.00000141,-
 0.00000452,0.00000277,-0.00000095,0.00000083,0.00000150,0.00000529,-0.
 00000930,0.00000044,0.00000188,0.00000367,-0.00000070,-0.00000080,0.,0
 .00000226,-0.00000231,-0.00000516,-0.00000235,0.00004404,-0.00013909,-
 0.00003030,0.00002628,-0.00008624,0.00020065,0.00002951,0.00008386,-0.
 00033164,0.00001309,0.00002082,0.00000568,0.00000257,0.00000287,-0.000
 00944,0.00000219,0.00000402,-0.00000245,0.00003188,-0.00011210,-0.0000
 7341,-0.00002321,-0.00002185,0.00005466,-0.00002913,-0.00002403,0.0000
 1083,0.00000343,0.00009136,-0.00010814,-0.00001057,-0.00000664,0.00001
 406,0.00000431,0.00000194,-0.00000123,0.00000472,0.00000994,-0.0000032
 0,0.00000286,0.00000646,-0.00000708,-0.00000266,-0.00000057,0.00000667
 ,-0.00001094,-0.00001374,-0.00000928,-0.00000670,0.00000646,0.00001256
 ,0.00000705,0.00001897,0.00001901,0.04293464,0.11971770,-0.00037449,-0
 .00043853,0.00033288,0.00548300,0.00279112,-0.00613342,0.08320041,0.12
 360835,-0.23064890,0.00119567,0.00660107,-0.00554669,0.00360095,0.0013
 9054,0.00286568,-0.00036883,-0.00057423,-0.00040485,0.00001857,0.00000
 381,-0.00002175,-0.00003318,0.00001584,-0.00001417,-0.00001804,-0.0000
 4496,0.00001361,0.00006566,0.00004446,-0.00004980,-0.00110061,-0.00147
 939,-0.00093213,-0.00120114,-0.00169094,-0.00093293,0.00003332,0.00040
 960,-0.00024966,0.00000207,-0.00000128,-0.00000269,0.00000406,-0.00000
 098,-0.00000689,-0.00001149,0.00003659,0.00004928,0.00051208,0.0044303
 5,0.00334197,-0.00003202,0.00007637,0.00002358,0.00016877,-0.00023829,
 -0.00015326,-0.00010890,-0.00004476,0.00013310,-0.00006971,-0.00013423
 ,-0.00001879,-0.00000858,0.00008482,-0.00000804,0.00014276,0.00028698,
 0.00005747,0.00021830,0.00001917,-0.00013269,-0.00002408,-0.00014022,-
 0.00005196,-0.00004840,0.00008757,0.00002078,-0.00010956,-0.00002785,0
 .00005134,0.00001932,-0.00000184,-0.00004540,0.00008357,0.00008880,-0.
 00001164,0.00001846,-0.00003401,-0.00000081,0.00001621,-0.00002369,0.0
 0002019,0.00003106,0.00004864,-0.00003652,0.00000251,0.00011143,0.0000
 3383,-0.00012300,-0.00030902,-0.00001091,-0.00001226,-0.00002354,0.000
 00584,0.00000409,0.00000565,0.00000623,0.00000249,-0.00001010,-0.00000
 833,-0.00000493,0.00000205,0.00000484,-0.00001564,-0.00003180,-0.00003
 270,-0.00002233,0.00002565,-0.00003174,-0.00005078,0.00005498,0.000054
 84,0.00000807,-0.00001395,0.00000555,-0.00000291,-0.00000407,0.0000149
 7,0.00000010,-0.00000226,-0.00000606,0.00000533,-0.00000415,0.00000089
 ,-0.00000318,0.00000208,0.00000285,-0.00000439,0.00000691,0.00001002,-
 0.00000188,-0.00000632,-0.00000792,-0.00000621,-0.00000027,0.00000120,
 0.00000193,-0.00000401,0.00000071,-0.00000263,-0.00001535,0.00001263,0
 .00000494,-0.00000478,0.00000675,-0.00001000,-0.00000359,-0.00000557,0
 .00000378,0.00000818,-0.00000121,-0.00000240,-0.00000956,0.00000319,-0
 .00000590,-0.00000544,-0.00000729,0.00000511,-0.00000341,0.00000444,0.
 00000199,0.00000519,-0.00000429,-0.00002640,0.00003864,-0.00005204,-0.
 00000979,-0.00003612,0.00001593,0.00000495,-0.00000551,0.00000463,0.00
 000120,-0.00001222,0.00001792,-0.00002512,0.00002927,-0.00007414,0.000
 00384,-0.00001400,0.00000613,-0.00000590,-0.00002139,0.00003368,0.0000
 1668,-0.00001732,-0.00003957,-0.00000183,0.00000362,-0.00000309,-0.000
 00085,0.00000349,0.00000037,-0.00000262,0.00000008,0.00000154,0.000000
 98,-0.00000103,-0.00000125,-0.00000090,0.00000186,-0.00000547,-0.00000
 190,0.00000008,0.00000204,-0.00000266,0.00000295,-0.00000172,0.0000027
 5,0.00000056,0.00000346,-0.00000050,0.00000413,0.00000014,0.00000007,-
 0.00000131,-0.00000036,-0.00000140,0.00000387,-0.00000058,0.00000022,-
 0.00000138,0.00000011,-0.00000248,0.00000769,0.00000220,0.00000167,-0.
 00000173,-0.00000297,-0.00000117,-0.00000304,0.00000143,-0.00000023,0.
 00000546,0.00000080,-0.00007034,0.00009871,-0.00004819,-0.00002530,0.0
 0006443,-0.00004074,-0.00000920,0.00000301,0.00000677,-0.00000052,-0.0
 0000678,-0.00000376,-0.00000217,-0.00000502,0.00000621,0.00000061,0.00
 000469,0.00000293,-0.00001881,-0.00018740,-0.00006304,0.00001993,0.000
 01919,0.00002796,-0.00000556,0.00001242,0.00000680,0.00007808,0.000019
 85,0.00006080,-0.00000894,-0.00002699,0.00000517,-0.00000042,-0.000000
 52,-0.00000345,0.00000055,-0.00000005,0.00000037,0.00000414,0.00000800
 ,0.00000129,-0.00000209,-0.00000483,0.00000421,0.00000005,0.00000466,0
 .00000402,-0.00000568,0.00000601,-0.00001110,0.00001031,0.00002238,0.0
 0001056,-0.09099560,-0.13493891,0.23856527,0.00005378,0.00005574,-0.00
 000137,0.00006175,0.00000971,0.00002799,-0.00002035,0.00001599,-0.0000
 3987,0.00002091,0.00003580,-0.00005017,-0.00008623,-0.00001753,0.00005
 832,-0.00005097,-0.00003158,0.00018695,0.00003700,-0.00001328,-0.00000
 384,-0.00004073,0.00003786,-0.00001899,0.00000410,-0.00005244,0.000064
 99,0.00003010,0.00007617,-0.00009529,0.00001652,-0.00000042,-0.0000005
 2,-0.00000177,0.00000835,0.00001260,-0.00000203,0.00000273,-0.00000711
 ,0.00000075,0.00000241,0.00000515,0.00000916,-0.00000064,-0.00002397,-
 0.00001892,-0.00003099,0.00000463,-0.00002668,0.00005431,-0.00002303,-
 0.00004847,0.00000500,-0.00001141,-0.00008804,-0.00006946,-0.00010250,
 -0.00010363,-0.00001808,0.00004454,-0.00006680,-0.00007125,-0.00007828
 ,-0.00004802,0.00011866,-0.00006443,0.00011256,0.00005967,0.00009255,0
 .00016999,0.00002446,-0.00002205,0.00016727,-0.00012894,0.00014287,-0.
 00009367,0.00011862,-0.00002328,-0.00011146,-0.00000102,0.00001856,0.0
 0003228,-0.00000315,-0.00002779,0.00006486,0.00001676,-0.00002484,0.00
 002560,-0.00006603,-0.00000061,0.00002060,-0.00006188,0.00002767,0.000
 02882,0.00003226,0.00001183,0.00001014,0.00004265,0.00003693,-0.000071
 32,-0.00010707,-0.00004547,-0.00000415,-0.00000160,0.00000496,0.000004
 77,0.00000199,-0.00000275,0.00000434,-0.00000131,-0.00000212,-0.000008
 86,-0.00000087,0.00000234,-0.00000638,-0.00000568,0.00000497,0.0000048
 1,0.00000307,0.00000042,0.00000353,0.00000344,-0.00000502,-0.00000972,
 -0.00000337,0.00000198,-0.00000142,0.00000276,0.00000399,0.00000279,-0
 .00000417,-0.00000450,0.00000114,0.00000119,-0.00000342,-0.00000536,0.
 00000082,0.00000595,-0.00000341,0.00000219,-0.00000014,0.00000203,-0.0
 0000135,-0.00000033,-0.00000388,-0.00000121,0.00000424,-0.00000135,0.0
 0000170,-0.00000390,-0.00000489,-0.00000592,-0.00000032,0.00000153,0.0
 0000289,-0.00000037,-0.00000721,-0.00000489,-0.00000042,0.00000503,0.0
 0000093,-0.00000114,-0.00000434,-0.00000155,-0.00000170,-0.00000291,-0
 .00000592,-0.00000193,-0.00000027,0.00000327,-0.00000266,0.00000223,0.
 00000120,0.00000201,-0.00000097,-0.00000545,-0.00000385,0.00000149,0.0
 0000234,0.00000313,0.00000134,0.00000185,0.00000138,-0.00000453,-0.000
 00590,-0.00000422,0.00000344,-0.00000562,-0.00000381,-0.00000375,-0.00
 000796,-0.00000691,-0.00000318,0.00000198,0.00000612,0.00000090,0.0000
 0641,0.00000055,-0.00000279,0.00000395,0.00000062,-0.00000129,0.000007
 48,-0.00000303,-0.00000267,-0.00000245,0.00000249,0.00000200,-0.000005
 66,-0.00000179,-0.00000444,0.00000828,-0.00000553,-0.00000009,-0.00000
 291,0.00000234,-0.00000550,0.00000695,-0.00000647,0.00000341,-0.000001
 07,0.00000433,-0.00000450,0.00000371,-0.00000099,-0.00000142,-0.000002
 61,-0.00000182,-0.00000351,0.00000749,-0.00000125,0.00000443,-0.000002
 51,-0.00000049,-0.00000054,0.00000689,0.00001422,0.00000758,-0.0000096
 5,-0.00001474,-0.00000063,-0.00001271,0.00000638,-0.00000913,0.0000135
 1,-0.00000339,-0.00000839,0.00001927,-0.00002085,0.00052435,0.00089112
 ,-0.00094860,-0.00055343,0.00102815,-0.00101509,-0.01400189,-0.0024037
 4,0.00412939,0.00031658,-0.00035912,-0.00026571,0.00044655,0.00025420,
 0.00025792,0.00033973,0.00030304,-0.00011842,0.00004478,-0.00001747,-0
 .00001912,-0.00015615,0.00002068,-0.00003121,-0.00167498,0.00022092,-0
 .00026980,-0.00019964,-0.00027033,0.00023802,0.00003652,-0.00002273,0.
 00000257,0.00000217,0.00004879,-0.00004382,0.00002851,0.00008851,-0.00
 000906,-0.30295500,-0.01741493,0.04836110,-0.00332689,-0.00048366,-0.0
 0029207,-0.00734008,0.00071086,0.00161622,-0.00000045,0.00000428,-0.00
 000408,0.00000375,0.00000634,0.00000525,0.32854321,0.00004672,-0.00011
 687,0.00005678,0.00000228,0.00003299,-0.00002467,0.00006979,-0.0000056
 7,-0.00004221,-0.00003669,-0.00000299,0.00002170,-0.00006039,0.0000626
 9,-0.00000497,-0.00002610,-0.00003383,0.00002333,0.00000121,-0.0000020
 8,0.00000136,0.00000956,0.00000138,-0.00000905,-0.00000725,0.00000761,
 -0.00000859,-0.00000108,0.00003245,-0.00000289,0.00000523,-0.00000670,
 -0.00000436,-0.00000295,0.00004855,0.00000947,-0.00000697,0.00001876,0
 .00002618,0.00000043,0.00000138,-0.00000179,0.00000027,0.00000556,-0.0
 0000443,-0.00001482,-0.00001107,0.00000261,0.00000445,-0.00003460,0.00
 004360,0.00003941,0.00000507,-0.00002112,0.00001851,0.00003685,0.00005
 833,0.00000756,0.00001602,-0.00001550,0.00000236,0.00000252,-0.0000026
 8,0.00000753,-0.00001664,0.00001379,-0.00000206,0.00000308,0.00000368,
 -0.00002535,-0.00002075,0.00001339,-0.00004616,0.00000784,-0.00006118,
 0.00002352,-0.00002152,0.00001069,0.00000963,0.00000260,-0.00000651,-0
 .00000189,-0.00000131,0.00000489,-0.00000494,-0.00000207,0.00000255,-0
 .00000184,0.00001348,0.00000191,-0.00000107,0.00001483,-0.00000413,0.0
 0000063,-0.00000090,0.00000035,0.00000238,0.00000337,0.00000182,0.0000
 0275,0.00001207,-0.00000931,0.00000126,-0.00000054,0.00000047,-0.00000
 026,0.00000060,-0.00000107,-0.00000035,0.00000035,0.00000073,0.0000000
 6,0.00000018,-0.00000051,0.00000283,-0.00000105,0.00000149,0.00000077,
 -0.00000041,0.00000086,-0.00000033,0.00000088,-0.00000263,-0.00000062,
 0.00000161,-0.00000007,-0.00000046,-0.00000037,-0.00000145,-0.00000081
 ,0.00000019,0.00000128,-0.00000058,0.00000041,-0.00000022,0.00000100,0
 .00000010,-0.00000047,0.00000007,0.00000024,-0.00000072,0.00000020,0.0
 0000019,0.00000051,0.00000065,0.00000004,-0.00000022,-0.00000034,0.000
 00026,-0.00000012,0.00000038,0.00000068,-0.00000057,-0.00000032,0.0000
 0017,-0.00000025,0.00000038,0.00000018,0.00000018,-0.00000007,-0.00000
 039,-0.00000003,-0.00000052,0.00000060,-0.00000060,0.00000010,0.000000
 17,0.00000019,-0.00000024,0.00000004,-0.00000038,0.00000020,-0.0000002
 0,0.00000031,0.00000006,-0.00000035,0.00000097,0.00000003,0.00000110,-
 0.00000029,0.00000017,-0.00000020,0.00000020,-0.00000013,0.00000016,-0
 .00000060,0.00000154,-0.00000146,0.00000171,-0.00000161,-0.00000021,-0
 .00000111,-0.00000029,-0.00000020,0.00000093,-0.00000004,0.00000222,-0
 .00000088,0.00000036,-0.00000063,0.00000022,0.00000061,-0.00000114,0.0
 0000045,0.00000033,0.00000009,-0.00000029,-0.00000053,0.00000131,-0.00
 000006,0.00000027,-0.00000368,0.00000158,-0.00000005,0.00000009,-0.000
 00033,0.00000151,-0.00000055,0.00000147,-0.00000047,-0.00000006,-0.000
 00048,0.00000069,-0.00000073,-0.00000035,-0.00000023,0.00000002,0.0000
 0007,0.00000071,-0.00000111,0.00000035,-0.00000062,0.00000056,0.000000
 67,-0.00000090,-0.00000145,-0.00000579,-0.00000050,0.00000332,0.000002
 76,-0.00000013,0.00000253,0.00000061,0.00000236,-0.00000281,0.00000151
 ,0.00000062,-0.00000072,0.00000176,0.00018717,-0.00354636,0.00438235,-
 0.00094208,0.00129097,-0.00056564,0.02219456,0.00088594,-0.00489562,-0
 .00077027,0.00062318,-0.00025801,-0.00043651,0.00053416,-0.00085298,-0
 .00014836,-0.00028354,0.00014883,0.00000945,0.00000830,-0.00001005,0.0
 0012416,0.00001065,0.00001501,0.00180815,0.00035478,-0.00038109,0.0000
 5574,0.00020860,-0.00022080,-0.00004548,0.00004836,0.00001377,-0.00001
 204,-0.00002282,0.00002182,0.00000474,-0.00003821,-0.00000474,-0.01786
 121,-0.04971268,0.00217584,0.00774549,-0.00071320,-0.00071834,-0.02927
 982,0.00064693,0.00671654,0.00000129,-0.00000088,0.00000160,0.00000519
 ,0.00000583,0.00000118,0.01733845,0.04964782,0.00003950,0.00003381,0.0
 0000452,0.00000054,-0.00001140,0.00000411,-0.00001851,0.00001534,0.000
 00311,0.00003379,-0.00000601,-0.00000909,-0.00001649,0.00000671,0.0000
 2906,-0.00001915,-0.00001485,0.00006411,0.00001192,-0.00000060,-0.0000
 1178,-0.00001159,0.00001587,-0.00000920,0.00001443,-0.00001077,0.00001
 241,0.00001258,0.00004017,-0.00001739,-0.00000489,0.00000144,-0.000001
 71,0.00000148,-0.00000645,-0.00000162,-0.00000067,-0.00001378,-0.00000
 751,-0.00000072,0.00000227,0.00000143,0.00000078,-0.00000108,-0.000013
 67,-0.00000812,-0.00003192,-0.00001040,-0.00002527,0.00003106,-0.00001
 752,-0.00001778,-0.00000491,0.00001322,-0.00000224,-0.00003055,-0.0000
 2976,0.00000298,-0.00000593,0.00001031,0.00000392,0.00000208,0.0000016
 7,0.00000351,-0.00000316,-0.00001015,-0.00000418,-0.00001036,0.0000009
 2,0.00000411,0.00001247,-0.00000944,0.00001865,0.00000620,0.00004427,-
 0.00000913,0.00000507,-0.00000865,0.00000490,-0.00000271,0.00000332,-0
 .00000261,0.00000229,-0.00000100,-0.00000107,-0.00000089,-0.00000233,-
 0.00000082,0.00000269,0.00000075,-0.00000192,-0.00000555,0.00000031,-0
 .00000327,-0.00000220,-0.00000067,-0.00000326,-0.00000026,-0.00000045,
 -0.00000097,-0.00000366,0.00000223,-0.00000112,0.00000146,-0.00000186,
 -0.00000067,-0.00000229,0.00000166,-0.00000103,0.00000068,-0.00000061,
 0.00000163,0.00000020,0.00000079,-0.00000210,0.00000119,-0.00000087,-0
 .00000017,0.00000020,0.00000012,0.00000029,-0.00000140,0.00000130,0.00
 000101,-0.00000052,-0.00000008,0.00000043,-0.00000034,0.00000079,0.000
 00035,0.00000054,-0.00000096,0.00000058,-0.00000038,0.00000095,-0.0000
 0040,-0.00000008,-0.00000036,0.00000033,-0.00000034,0.00000054,-0.0000
 0034,-0.00000016,-0.00000027,-0.00000018,0.00000010,-0.00000043,0.0000
 0042,-0.00000034,0.00000071,0.00000022,-0.00000054,0.,-0.00000005,-0.0
 0000030,0.00000035,0.00000028,0.00000042,-0.00000007,-0.00000014,0.000
 00012,-0.00000018,-0.00000045,0.00000022,0.00000039,0.00000025,0.00000
 043,-0.00000022,-0.00000004,-0.00000039,0.00000023,0.00000029,-0.00000
 035,-0.00000034,0.00000044,-0.00000029,-0.00000101,-0.00000015,-0.0000
 0052,0.00000008,0.00000025,-0.00000011,-0.00000045,-0.00000008,0.00000
 012,0.00000067,-0.00000025,-0.00000082,-0.00000019,0.00000043,0.000000
 19,0.00000043,-0.00000009,0.00000079,-0.00000091,-0.00000025,-0.000000
 81,0.00000073,0.00000050,0.00000017,-0.00000069,-0.00000021,-0.0000000
 2,0.00000051,-0.00000016,0.00000017,-0.00000028,0.00000020,-0.00000007
 ,-0.00000022,0.00000008,0.00000240,-0.00000071,-0.00000004,0.00000036,
 -0.00000008,-0.00000076,-0.00000038,-0.00000042,0.,-0.00000010,-0.0000
 0025,-0.00000063,-0.00000038,0.00000051,-0.00000056,0.00000022,-0.0000
 0019,0.00000047,-0.00000040,-0.00000042,0.00000039,0.00000084,-0.00000
 016,-0.00000080,-0.00000049,0.00000187,-0.00000019,-0.00000109,-0.0000
 0086,0.00000041,0.00000064,-0.00000020,0.00000037,-0.00000016,-0.00000
 068,-0.00000273,0.00000335,0.00000015,-0.00026099,0.00418425,-0.003833
 62,0.00113002,-0.00078903,0.00135185,-0.02153857,-0.00177512,0.0032560
 4,0.00038916,-0.00089641,0.00059427,0.00078946,-0.00041644,0.00060340,
 0.00005124,0.00024530,-0.00015383,-0.00000809,-0.00000492,0.00000447,-
 0.00010811,0.00000284,-0.00000931,-0.00157206,-0.00028401,0.00056543,-
 0.00005910,-0.00017523,0.00018125,0.00004359,-0.00002161,-0.00002828,0
 .00001108,0.00000652,-0.00002474,0.00000616,0.00000460,-0.00000402,0.0
 4860840,0.00209336,-0.05742653,0.03025631,0.00345881,-0.00274407,-0.00
 610339,0.00000914,-0.00031365,0.00000019,-0.00000147,0.00000024,-0.000
 00497,-0.00000815,-0.00000094,-0.05162678,-0.00564457,0.05794984\\-0.0
 0000481,-0.00000236,0.00000509,0.00000578,0.00000050,-0.00000934,-0.00
 000286,0.00000276,0.00000071,0.00000133,-0.00000327,-0.00000025,0.0000
 1026,-0.00000453,-0.00000459,0.00000394,0.00000070,-0.00000685,-0.0000
 0506,0.00000434,-0.00000124,0.00000948,-0.00000498,0.00000092,-0.00001
 392,0.00001137,-0.00000410,0.00000055,-0.00000456,0.00000213,-0.000005
 18,-0.00000259,0.00000236,0.00000094,0.00000356,-0.00000301,-0.0000058
 9,0.00000160,-0.00000006,0.00000015,0.00000004,0.00000280,0.00000343,0
 .00000129,-0.00000351,-0.00000125,0.00000515,0.00000122,0.00002155,0.0
 0000785,0.00000504,0.00000258,-0.00000955,-0.00000538,-0.00004692,0.00
 000570,-0.00000383,-0.00000042,0.00000002,0.00000387,0.00000211,0.0000
 0172,0.00000490,-0.00000070,-0.00000514,-0.00000046,0.00000676,0.00000
 713,-0.00000983,0.00000455,0.00000135,-0.00000361,0.00000825,0.0000079
 9,0.00001376,0.00000513,-0.00000391,-0.00000096,0.00000119,-0.00000284
 ,-0.00000380,-0.00000307,0.00000225,-0.00000501,0.00000466,-0.00000024
 ,-0.00000192,-0.00000359,-0.00000411,-0.00000464,-0.00000675,0.0000040
 0,0.00001441,0.00000678,-0.00000400,-0.00000643,-0.00000697,-0.0000053
 8,-0.00000207,0.00000364,-0.00000304,0.00000757,0.00000290,-0.00000410
 ,0.00000399,0.00000061,-0.00000071,-0.00000093,0.00000080,0.00000195,0
 .00000085,-0.00000156,-0.00000174,0.00000140,0.00000291,-0.00000277,0.
 00000249,0.00000245,-0.00000083,0.00000087,0.00000028,0.00000063,-0.00
 000298,-0.00000187,-0.00000184,0.00000175,0.00000434,0.00000062,0.0000
 0809,-0.00000679,-0.00000207,-0.00000075,0.00000444,-0.00000189,-0.000
 00077,-0.00000052,-0.00000358,0.00000480,-0.00000185,-0.00000449,0.000
 00465,0.00000144,-0.00000043,0.00000088,0.00000264,-0.00000152,-0.0000
 0032,0.00000059,-0.00000057,0.00000140,-0.00000788,-0.00000553,0.00000
 117,-0.00000148,0.00000259,-0.00000143,0.00000316,0.00000379,0.0000010
 4,0.00000193,-0.00000054,0.00000038,-0.00001071,-0.00000161,-0.0000015
 5,0.00000082,0.00000205,-0.00000020,-0.00000053,0.00000092,0.00000064,
 0.00000519,0.00000117,-0.00000076,-0.00000353,0.00000033,-0.00000703,0
 .00000289,-0.00000358,0.00000385,0.00000022,0.00000193,0.00000206,0.00
 000307,0.00000275,0.00000203,0.00000760,0.00000515,-0.00000171,-0.0000
 0125,0.00000105,0.00000030,-0.00000428,-0.00000321,-0.00000039,0.00000
 272,-0.00000003,0.00000090,-0.00000417,-0.00000306,-0.00000487,-0.0000
 0208,-0.00000062,0.00000247,0.00000253,-0.00000047,0.00000019,0.000002
 94,0.00000037,0.00000392,0.00000493,-0.00000313,0.00000173,-0.00000282
 ,0.00000012,0.00000092,-0.00000492,0.00000343,-0.00000180,-0.00000099,
 0.00000008,0.00000086,0.00000343,-0.00000097,-0.00000273,-0.00000073,0
 .00000116,0.00000288,-0.00000397,0.00000330,0.00000159,-0.00000346,0.0
 0000047,0.00000179,0.00000223,-0.00000058,0.00000378,-0.00000083,0.000
 00217,-0.00000186,-0.00000190,0.00000157,0.00000051,-0.00000214,-0.000
 00166,0.00000065,-0.00000419,-0.00000347,0.00000429,-0.00000629,-0.000
 00547,0.00000994,0.00000474,0.00000631,-0.00000286,0.00001972,0.000007
 26,0.00001891,-0.00001138,0.00000200,-0.00001362,0.00000021,-0.0000011
 5,-0.00000921,0.00001809,-0.00000451,-0.00001448,-0.00000634,-0.000001
 98,-0.00000224,-0.00000258,0.00000614,0.00000971,-0.00000645,0.0000020
 2,-0.00000954,0.00000409,0.00000134,-0.00000090,0.00000013,-0.00000003
 ,0.00000007,-0.00000332,0.00000169,-0.00000167,-0.00000093,-0.00000118
 ,-0.00000067,-0.00000413,0.00000167,-0.00000496,-0.00000186,0.00000265
 ,0.00000742,0.00000254,-0.00000863,-0.00000815,-0.00000187,0.00000073,
 -0.00000146,0.00000105,-0.00000083,0.00000039,0.00000628,0.00000051,0.
 00000035\\\@
 The archive entry for this job was punched.


 A politician is a person who can make waves and then
 make you think he's the only one who can save the ship.
 -- Ivern Ball
 Job cpu time:       1 days  9 hours 43 minutes 15.9 seconds.
 Elapsed time:       0 days  2 hours  8 minutes 52.4 seconds.
 File lengths (MBytes):  RWF=   6947 Int=      0 D2E=      0 Chk=     43 Scr=      1
 Normal termination of Gaussian 16 at Sat Dec  7 23:56:28 2024.
