/mnt/lustre/scratch/nvme/SLURM/9663501/usccqdma.yez3WJ0G4C
OMP_STACKSIZE=0m
GAUSS_PDEF=16
GAUSS_MDEF=65536MB
GAUSS_RDEF=SCF=Direct
 Entering Gaussian System, Link 0=g16.exe
 Initial command:
 /opt/cesga/2020/software/Core/g16/c1/l1.exe "/mnt/lustre/scratch/nvme/SLURM/9663501/usccqdma.yez3WJ0G4C/Gau-2971609.inp" -scrdir="/mnt/lustre/scratch/nvme/SLURM/9663501/usccqdma.yez3WJ0G4C/"
 Default is to use a total of  16 processors:
                               16 via shared-memory
                                1 via Linda
 Entering Link 1 = /opt/cesga/2020/software/Core/g16/c1/l1.exe PID=   2971636.
  
 Copyright (c) 1988-2019, Gaussian, Inc.  All Rights Reserved.
  
 This is part of the Gaussian(R) 16 program.  It is based on
 the Gaussian(R) 09 system (copyright 2009, Gaussian, Inc.),
 the Gaussian(R) 03 system (copyright 2003, Gaussian, Inc.),
 the Gaussian(R) 98 system (copyright 1998, Gaussian, Inc.),
 the Gaussian(R) 94 system (copyright 1995, Gaussian, Inc.),
 the Gaussian 92(TM) system (copyright 1992, Gaussian, Inc.),
 the Gaussian 90(TM) system (copyright 1990, Gaussian, Inc.),
 the Gaussian 88(TM) system (copyright 1988, Gaussian, Inc.),
 the Gaussian 86(TM) system (copyright 1986, Carnegie Mellon
 University), and the Gaussian 82(TM) system (copyright 1983,
 Carnegie Mellon University). Gaussian is a federally registered
 trademark of Gaussian, Inc.
  
 This software contains proprietary and confidential information,
 including trade secrets, belonging to Gaussian, Inc.
  
 This software is provided under written license and may be
 used, copied, transmitted, or stored only in accord with that
 written license.
  
 The following legend is applicable only to US Government
 contracts under FAR:
  
                    RESTRICTED RIGHTS LEGEND
  
 Use, reproduction and disclosure by the US Government is
 subject to restrictions as set forth in subparagraphs (a)
 and (c) of the Commercial Computer Software - Restricted
 Rights clause in FAR 52.227-19.
  
 Gaussian, Inc.
 340 Quinnipiac St., Bldg. 40, Wallingford CT 06492
  
  
 ---------------------------------------------------------------
 Warning -- This program may not be used in any manner that
 competes with the business of Gaussian, Inc. or will provide
 assistance to any competitor of Gaussian, Inc.  The licensee
 of this program is prohibited from giving any competitor of
 Gaussian, Inc. access to this program.  By using this program,
 the user acknowledges that Gaussian, Inc. is engaged in the
 business of creating and licensing software in the field of
 computational chemistry and represents and warrants to the
 licensee that it is not a competitor of Gaussian, Inc. and that
 it will not use this program in any manner prohibited above.
 ---------------------------------------------------------------
  

 Cite this work as:
 Gaussian 16, Revision C.01,
 M. J. Frisch, G. W. Trucks, H. B. Schlegel, G. E. Scuseria, 
 M. A. Robb, J. R. Cheeseman, G. Scalmani, V. Barone, 
 G. A. Petersson, H. Nakatsuji, X. Li, M. Caricato, A. V. Marenich, 
 J. Bloino, B. G. Janesko, R. Gomperts, B. Mennucci, H. P. Hratchian, 
 J. V. Ortiz, A. F. Izmaylov, J. L. Sonnenberg, D. Williams-Young, 
 F. Ding, F. Lipparini, F. Egidi, J. Goings, B. Peng, A. Petrone, 
 T. Henderson, D. Ranasinghe, V. G. Zakrzewski, J. Gao, N. Rega, 
 G. Zheng, W. Liang, M. Hada, M. Ehara, K. Toyota, R. Fukuda, 
 J. Hasegawa, M. Ishida, T. Nakajima, Y. Honda, O. Kitao, H. Nakai, 
 T. Vreven, K. Throssell, J. A. Montgomery, Jr., J. E. Peralta, 
 F. Ogliaro, M. J. Bearpark, J. J. Heyd, E. N. Brothers, K. N. Kudin, 
 V. N. Staroverov, T. A. Keith, R. Kobayashi, J. Normand, 
 K. Raghavachari, A. P. Rendell, J. C. Burant, S. S. Iyengar, 
 J. Tomasi, M. Cossi, J. M. Millam, M. Klene, C. Adamo, R. Cammi, 
 J. W. Ochterski, R. L. Martin, K. Morokuma, O. Farkas, 
 J. B. Foresman, and D. J. Fox, Gaussian, Inc., Wallingford CT, 2019.
 
 ******************************************
 Gaussian 16:  ES64L-G16RevC.01  3-Jul-2019
                 7-Dec-2024 
 ******************************************
 Default route: SCF=Direct
 ----------------------------------------------------
 # m06/genecp scf=tight int=ultrafine 5d freq=noraman
 ----------------------------------------------------
 1/10=4,30=1,38=1/1,3;
 2/12=2,17=6,18=5,40=1/2;
 3/5=7,8=1,11=2,16=1,17=8,25=1,30=1,71=2,74=-54,75=-5,140=1/1,2,3;
 4//1;
 5/5=2,32=2,38=5,98=1/2;
 8/6=4,10=90,11=11/1;
 11/6=1,8=1,9=11,15=111,16=1/1,2,10;
 10/6=1/2;
 6/7=2,8=2,9=2,10=2,28=1/1;
 7/8=1,10=1,25=1/1,2,3,16;
 1/10=4,30=1/3;
 99//99;
 ------
 OPT-TS
 ------
 Symbolic Z-matrix:
 Charge =  0 Multiplicity = 1
 C                    -0.69203   3.02088  -0.87651 
 C                    -2.46326   1.53173  -0.97991 
 C                    -3.37591   2.56652  -1.11053 
 C                    -2.9155    3.8798   -1.11532 
 C                    -1.55491   4.11084  -1.00068 
 C                     0.7694    3.1726   -0.71604 
 C                     2.744     2.13087  -0.08901 
 C                     3.49329   3.25238  -0.42367 
 C                     2.84063   4.37416  -0.91737 
 C                     1.46087   4.33038  -1.06924 
 H                    -2.77438   0.48688  -0.91858 
 H                    -3.61924   4.70699  -1.19475 
 H                    -1.17288   5.12834  -0.9693 
 H                     3.20911   1.20999   0.2744 
 H                     3.40451   5.26197  -1.19345 
 H                     0.9325    5.18335  -1.48797 
 N                    -1.15156   1.7561   -0.86363 
 N                     1.41956   2.09571  -0.22422 
 Ir                    0.2136    0.20227   0.11566 
 O                    -2.33114  -1.41872   0.05846 
 O                    -1.14991  -0.53813   2.76919 
 O                     2.846    -1.06517   0.46779 
 B                    -0.88504   0.38669   1.77842 
 B                    -0.93006  -1.46511   0.0691 
 B                     1.5668   -0.9573    1.06808 
 O                     1.55088  -1.67837   2.24616 
 O                    -0.5038   -2.77815  -0.05496 
 C                    -1.63161  -3.63934   0.17775 
 C                    -2.83562  -2.7351   -0.222 
 C                     3.72297  -1.72404   1.39463 
 C                     2.71788  -2.50719   2.28693 
 C                    -1.91769   0.10861   3.79124 
 C                    -2.57883   1.28598   3.01749 
 O                    -1.59434   1.57054   2.00742 
 C                    -3.16106  -2.78851  -1.70694 
 H                    -3.8246   -1.94652  -1.95383 
 H                    -2.25464  -2.71737  -2.32089 
 H                    -3.67634  -3.7199   -1.97889 
 C                    -4.09932  -2.94375   0.58872 
 H                    -4.87484  -2.24612   0.24268 
 H                    -4.48331  -3.96679   0.46681 
 H                    -3.92906  -2.75865   1.65612 
 C                    -1.46347  -4.89001  -0.66085 
 H                    -0.58259  -5.4448   -0.3081 
 H                    -2.33839  -5.5498   -0.56637 
 H                    -1.30834  -4.65048  -1.72035 
 C                    -1.61896  -3.97986   1.66238 
 H                    -0.67217  -4.48191   1.89748 
 H                    -1.67088  -3.06826   2.27514 
 H                    -2.44117  -4.65492   1.93693 
 C                    -2.88879  -0.89678   4.37632 
 H                    -3.49688  -1.36666   3.59399 
 H                    -2.33145  -1.68978   4.89157 
 H                    -3.55999  -0.42097   5.10596 
 C                    -0.93797   0.57167   4.86137 
 H                    -0.23731   1.31512   4.45964 
 H                    -1.45141   1.00415   5.731 
 H                    -0.352    -0.29348   5.19505 
 C                    -3.85756   0.88163   2.29286 
 H                    -4.67875   0.67663   2.99291 
 H                    -4.17322   1.70865   1.64134 
 H                    -3.6929   -0.00464   1.66292 
 C                    -2.82228   2.53489   3.83977 
 H                    -3.27487   3.31065   3.20804 
 H                    -3.51478   2.32786   4.66845 
 H                    -1.89133   2.93687   4.25437 
 C                     2.32652  -3.85982   1.70296 
 H                     3.1624   -4.57252   1.71273 
 H                     1.51511  -4.27481   2.31418 
 H                     1.94088  -3.7579    0.67882 
 C                     3.15308  -2.67773   3.72931 
 H                     3.29683  -1.7121    4.22654 
 H                     2.38148  -3.22732   4.28282 
 H                     4.08999  -3.25038   3.79228 
 C                     4.47266  -0.63229   2.14946 
 H                     5.20924  -1.04434   2.85209 
 H                     5.01309  -0.00142   1.42893 
 H                     3.77699   0.00768   2.70998 
 C                     4.70601  -2.58232   0.62308 
 H                     5.35002  -1.94325   0.00396 
 H                     5.3524   -3.15059   1.30758 
 H                     4.19579  -3.29178  -0.03911 
 H                     1.58267  -0.46325  -1.45579 
 C                    -0.04532  -2.06443  -3.64508 
 O                    -0.43363  -3.21224  -3.83511 
 C                    -0.84381  -0.87734  -4.16183 
 C                     1.56944  -0.49249  -2.56776 
 C                     2.97387  -0.16456  -3.04306 
 H                     0.86368   0.26853  -2.91624 
 N                     1.10958  -1.80976  -2.95892 
 C                     1.80525  -2.95444  -2.36433 
 C                     2.70159  -3.68093  -3.34952 
 H                     2.37322  -2.56878  -1.50646 
 H                     1.04311  -3.63377  -1.96401 
 C                     4.9787    3.18086  -0.24531 
 C                    -4.84524   2.30071  -1.21741 
 H                    -0.17763  -0.17331  -4.68326 
 H                    -1.24253  -0.32696  -3.29066 
 C                    -1.97164  -1.30808  -5.08013 
 H                     3.70914  -0.85805  -2.61499 
 H                     3.25703   0.84936  -2.7265 
 H                     3.04126  -0.21825  -4.1379 
 H                     2.1045   -4.08384  -4.17586 
 H                     3.21177  -4.51955  -2.85701 
 H                     3.46908  -3.0164   -3.76881 
 F                    -5.13197   1.0034   -1.13187 
 F                    -5.33048   2.75724  -2.37828 
 F                    -5.51167   2.9366   -0.24389 
 F                     5.29854   2.97337   1.03541 
 F                     5.58213   4.30166  -0.64554 
 F                     5.49115   2.16278  -0.94479 
 H                    -1.58316  -1.8599   -5.94376 
 H                    -2.52681  -0.43583  -5.44595 
 H                    -2.67078  -1.97485  -4.56398 
 

 GradGradGradGradGradGradGradGradGradGradGradGradGradGradGradGradGradGrad
 Berny optimization.
 Initialization pass.
 Trust Radius=3.00D-01 FncErr=1.00D-07 GrdErr=1.00D-07 EigMax=2.50D+02 EigMin=1.00D-04
 Number of steps in this run=      2 maximum allowed number of steps=      2.
 GradGradGradGradGradGradGradGradGradGradGradGradGradGradGradGradGradGrad

 Stoichiometry    C37H57B3F6IrN3O7
 Framework group  C1[X(C37H57B3F6IrN3O7)]
 Deg. of freedom   336
 Full point group                 C1      NOp   1
 Largest Abelian subgroup         C1      NOp   1
 Largest concise Abelian subgroup C1      NOp   1
                         Standard orientation:                         
 ---------------------------------------------------------------------
 Center     Atomic      Atomic             Coordinates (Angstroms)
 Number     Number       Type             X           Y           Z
 ---------------------------------------------------------------------
      1          6           0       -0.692028    3.020881   -0.876510
      2          6           0       -2.463259    1.531731   -0.979910
      3          6           0       -3.375909    2.566522   -1.110530
      4          6           0       -2.915498    3.879802   -1.115320
      5          6           0       -1.554908    4.110841   -1.000680
      6          6           0        0.769402    3.172600   -0.716040
      7          6           0        2.744001    2.130869   -0.089010
      8          6           0        3.493292    3.252378   -0.423670
      9          6           0        2.840632    4.374159   -0.917370
     10          6           0        1.460872    4.330379   -1.069240
     11          1           0       -2.774380    0.486882   -0.918580
     12          1           0       -3.619238    4.706992   -1.194750
     13          1           0       -1.172877    5.128341   -0.969300
     14          1           0        3.209111    1.209989    0.274400
     15          1           0        3.404513    5.261968   -1.193450
     16          1           0        0.932503    5.183350   -1.487970
     17          7           0       -1.151559    1.756101   -0.863630
     18          7           0        1.419561    2.095709   -0.224220
     19         77           0        0.213600    0.202270    0.115660
     20          8           0       -2.331141   -1.418719    0.058460
     21          8           0       -1.149910   -0.538129    2.769190
     22          8           0        2.845999   -1.065171    0.467790
     23          5           0       -0.885040    0.386691    1.778420
     24          5           0       -0.930061   -1.465109    0.069100
     25          5           0        1.566800   -0.957301    1.068080
     26          8           0        1.550879   -1.678371    2.246160
     27          8           0       -0.503801   -2.778150   -0.054960
     28          6           0       -1.631612   -3.639339    0.177750
     29          6           0       -2.835621   -2.735098   -0.222000
     30          6           0        3.722969   -1.724042    1.394630
     31          6           0        2.717879   -2.507191    2.286930
     32          6           0       -1.917690    0.108611    3.791240
     33          6           0       -2.578829    1.285982    3.017490
     34          8           0       -1.594339    1.570541    2.007420
     35          6           0       -3.161061   -2.788508   -1.706940
     36          1           0       -3.824601   -1.946518   -1.953830
     37          1           0       -2.254641   -2.717369   -2.320890
     38          1           0       -3.676342   -3.719898   -1.978890
     39          6           0       -4.099322   -2.943748    0.588720
     40          1           0       -4.874841   -2.246117    0.242680
     41          1           0       -4.483312   -3.966787    0.466810
     42          1           0       -3.929061   -2.758648    1.656120
     43          6           0       -1.463473   -4.890009   -0.660850
     44          1           0       -0.582593   -5.444799   -0.308100
     45          1           0       -2.338393   -5.549799   -0.566370
     46          1           0       -1.308342   -4.650479   -1.720350
     47          6           0       -1.618962   -3.979859    1.662380
     48          1           0       -0.672172   -4.481909    1.897480
     49          1           0       -1.670882   -3.068259    2.275140
     50          1           0       -2.441172   -4.654919    1.936930
     51          6           0       -2.888790   -0.896778    4.376320
     52          1           0       -3.496881   -1.366658    3.593990
     53          1           0       -2.331451   -1.689779    4.891570
     54          1           0       -3.559990   -0.420968    5.105960
     55          6           0       -0.937970    0.571671    4.861370
     56          1           0       -0.237309    1.315120    4.459640
     57          1           0       -1.451409    1.004151    5.731000
     58          1           0       -0.352000   -0.293480    5.195050
     59          6           0       -3.857560    0.881632    2.292860
     60          1           0       -4.678750    0.676633    2.992910
     61          1           0       -4.173219    1.708652    1.641340
     62          1           0       -3.692900   -0.004638    1.662920
     63          6           0       -2.822279    2.534892    3.839770
     64          1           0       -3.274868    3.310652    3.208040
     65          1           0       -3.514779    2.327862    4.668450
     66          1           0       -1.891328    2.936871    4.254370
     67          6           0        2.326518   -3.859821    1.702960
     68          1           0        3.162398   -4.572521    1.712730
     69          1           0        1.515108   -4.274811    2.314180
     70          1           0        1.940878   -3.757901    0.678820
     71          6           0        3.153079   -2.677731    3.729310
     72          1           0        3.296829   -1.712101    4.226540
     73          1           0        2.381478   -3.227321    4.282820
     74          1           0        4.089988   -3.250382    3.792280
     75          6           0        4.472660   -0.632292    2.149460
     76          1           0        5.209239   -1.044342    2.852090
     77          1           0        5.013090   -0.001422    1.428930
     78          1           0        3.776990    0.007678    2.709980
     79          6           0        4.706009   -2.582322    0.623080
     80          1           0        5.350019   -1.943253    0.003960
     81          1           0        5.352398   -3.150593    1.307580
     82          1           0        4.195788   -3.291782   -0.039110
     83          1           0        1.582670   -0.463251   -1.455790
     84          6           0       -0.045321   -2.064430   -3.645080
     85          8           0       -0.433632   -3.212240   -3.835110
     86          6           0       -0.843810   -0.877339   -4.161830
     87          6           0        1.569440   -0.492491   -2.567760
     88          6           0        2.973870   -0.164561   -3.043060
     89          1           0        0.863680    0.268530   -2.916240
     90          7           0        1.109579   -1.809760   -2.958920
     91          6           0        1.805248   -2.954441   -2.364330
     92          6           0        2.701588   -3.680931   -3.349520
     93          1           0        2.373219   -2.568781   -1.506460
     94          1           0        1.043108   -3.633770   -1.964010
     95          6           0        4.978702    3.180858   -0.245310
     96          6           0       -4.845239    2.300713   -1.217410
     97          1           0       -0.177630   -0.173310   -4.683260
     98          1           0       -1.242530   -0.326959   -3.290660
     99          6           0       -1.971641   -1.308079   -5.080130
    100          1           0        3.709140   -0.858052   -2.614990
    101          1           0        3.257030    0.849359   -2.726500
    102          1           0        3.041260   -0.218251   -4.137900
    103          1           0        2.104498   -4.083841   -4.175860
    104          1           0        3.211768   -4.519551   -2.857010
    105          1           0        3.469078   -3.016402   -3.768810
    106          9           0       -5.131969    1.003403   -1.131870
    107          9           0       -5.330479    2.757243   -2.378280
    108          9           0       -5.511668    2.936603   -0.243890
    109          9           0        5.298542    2.973367    1.035410
    110          9           0        5.582132    4.301657   -0.645540
    111          9           0        5.491151    2.162777   -0.944790
    112          1           0       -1.583161   -1.859899   -5.943760
    113          1           0       -2.526810   -0.435828   -5.445950
    114          1           0       -2.670781   -1.974848   -4.563980
 ---------------------------------------------------------------------
 Rotational constants (GHZ):           0.0531912           0.0423774           0.0378968
 General basis read from cards:  (5D, 7F)
 ======================================================================================================
                                       Pseudopotential Parameters
 ======================================================================================================
  Center     Atomic      Valence      Angular      Power
  Number     Number     Electrons     Momentum     of R      Exponent        Coefficient   SO-Coeffient
 ======================================================================================================
    1          6
                                   No pseudopotential on this center.
    2          6
                                   No pseudopotential on this center.
    3          6
                                   No pseudopotential on this center.
    4          6
                                   No pseudopotential on this center.
    5          6
                                   No pseudopotential on this center.
    6          6
                                   No pseudopotential on this center.
    7          6
                                   No pseudopotential on this center.
    8          6
                                   No pseudopotential on this center.
    9          6
                                   No pseudopotential on this center.
   10          6
                                   No pseudopotential on this center.
   11          1
                                   No pseudopotential on this center.
   12          1
                                   No pseudopotential on this center.
   13          1
                                   No pseudopotential on this center.
   14          1
                                   No pseudopotential on this center.
   15          1
                                   No pseudopotential on this center.
   16          1
                                   No pseudopotential on this center.
   17          7
                                   No pseudopotential on this center.
   18          7
                                   No pseudopotential on this center.
   19         77           17
                                      G and up 
                                                     1      823.5880147       -0.15780140    0.00000000
                                                     2      364.6613336    -1517.52704460    0.00000000
                                                     2       55.7082801     -316.53065290    0.00000000
                                                     2       12.0464544      -91.88809410    0.00000000
                                                     2        3.5120610       -9.22417730    0.00000000
                                      S - G
                                                     0      188.0490770        3.15780140    0.00000000
                                                     1      340.4194712       26.83225770    0.00000000
                                                     2      128.2373673      800.42500070    0.00000000
                                                     2       33.8644961      369.40506830    0.00000000
                                                     2        4.7560005      242.41718990    0.00000000
                                                     2        3.9649974     -118.21732820    0.00000000
                                      P - G
                                                     0      289.7291139        2.15780140    0.00000000
                                                     1       87.4633789       61.96786100    0.00000000
                                                     2       30.4363766      269.05819860    0.00000000
                                                     2        4.0553412      231.16547930    0.00000000
                                                     2        3.5525341     -133.69526670    0.00000000
                                      D - G
                                                     0      136.4017106        3.15780140    0.00000000
                                                     1       95.0776925       45.93498030    0.00000000
                                                     2       49.2258410      359.03446680    0.00000000
                                                     2       15.0874145      176.47401190    0.00000000
                                                     2        4.0405764       54.51552860    0.00000000
                                      F - G
                                                     0      127.3507908        3.95461970    0.00000000
                                                     1       66.2364374       52.97736550    0.00000000
                                                     2       34.4299229      274.86433830    0.00000000
                                                     2       10.1995721      137.20473380    0.00000000
                                                     2        2.5409702       14.86333050    0.00000000
   20          8
                                   No pseudopotential on this center.
   21          8
                                   No pseudopotential on this center.
   22          8
                                   No pseudopotential on this center.
   23          5
                                   No pseudopotential on this center.
   24          5
                                   No pseudopotential on this center.
   25          5
                                   No pseudopotential on this center.
   26          8
                                   No pseudopotential on this center.
   27          8
                                   No pseudopotential on this center.
   28          6
                                   No pseudopotential on this center.
   29          6
                                   No pseudopotential on this center.
   30          6
                                   No pseudopotential on this center.
   31          6
                                   No pseudopotential on this center.
   32          6
                                   No pseudopotential on this center.
   33          6
                                   No pseudopotential on this center.
   34          8
                                   No pseudopotential on this center.
   35          6
                                   No pseudopotential on this center.
   36          1
                                   No pseudopotential on this center.
   37          1
                                   No pseudopotential on this center.
   38          1
                                   No pseudopotential on this center.
   39          6
                                   No pseudopotential on this center.
   40          1
                                   No pseudopotential on this center.
   41          1
                                   No pseudopotential on this center.
   42          1
                                   No pseudopotential on this center.
   43          6
                                   No pseudopotential on this center.
   44          1
                                   No pseudopotential on this center.
   45          1
                                   No pseudopotential on this center.
   46          1
                                   No pseudopotential on this center.
   47          6
                                   No pseudopotential on this center.
   48          1
                                   No pseudopotential on this center.
   49          1
                                   No pseudopotential on this center.
   50          1
                                   No pseudopotential on this center.
   51          6
                                   No pseudopotential on this center.
   52          1
                                   No pseudopotential on this center.
   53          1
                                   No pseudopotential on this center.
   54          1
                                   No pseudopotential on this center.
   55          6
                                   No pseudopotential on this center.
   56          1
                                   No pseudopotential on this center.
   57          1
                                   No pseudopotential on this center.
   58          1
                                   No pseudopotential on this center.
   59          6
                                   No pseudopotential on this center.
   60          1
                                   No pseudopotential on this center.
   61          1
                                   No pseudopotential on this center.
   62          1
                                   No pseudopotential on this center.
   63          6
                                   No pseudopotential on this center.
   64          1
                                   No pseudopotential on this center.
   65          1
                                   No pseudopotential on this center.
   66          1
                                   No pseudopotential on this center.
   67          6
                                   No pseudopotential on this center.
   68          1
                                   No pseudopotential on this center.
   69          1
                                   No pseudopotential on this center.
   70          1
                                   No pseudopotential on this center.
   71          6
                                   No pseudopotential on this center.
   72          1
                                   No pseudopotential on this center.
   73          1
                                   No pseudopotential on this center.
   74          1
                                   No pseudopotential on this center.
   75          6
                                   No pseudopotential on this center.
   76          1
                                   No pseudopotential on this center.
   77          1
                                   No pseudopotential on this center.
   78          1
                                   No pseudopotential on this center.
   79          6
                                   No pseudopotential on this center.
   80          1
                                   No pseudopotential on this center.
   81          1
                                   No pseudopotential on this center.
   82          1
                                   No pseudopotential on this center.
   83          1
                                   No pseudopotential on this center.
   84          6
                                   No pseudopotential on this center.
   85          8
                                   No pseudopotential on this center.
   86          6
                                   No pseudopotential on this center.
   87          6
                                   No pseudopotential on this center.
   88          6
                                   No pseudopotential on this center.
   89          1
                                   No pseudopotential on this center.
   90          7
                                   No pseudopotential on this center.
   91          6
                                   No pseudopotential on this center.
   92          6
                                   No pseudopotential on this center.
   93          1
                                   No pseudopotential on this center.
   94          1
                                   No pseudopotential on this center.
   95          6
                                   No pseudopotential on this center.
   96          6
                                   No pseudopotential on this center.
   97          1
                                   No pseudopotential on this center.
   98          1
                                   No pseudopotential on this center.
   99          6
                                   No pseudopotential on this center.
  100          1
                                   No pseudopotential on this center.
  101          1
                                   No pseudopotential on this center.
  102          1
                                   No pseudopotential on this center.
  103          1
                                   No pseudopotential on this center.
  104          1
                                   No pseudopotential on this center.
  105          1
                                   No pseudopotential on this center.
  106          9
                                   No pseudopotential on this center.
  107          9
                                   No pseudopotential on this center.
  108          9
                                   No pseudopotential on this center.
  109          9
                                   No pseudopotential on this center.
  110          9
                                   No pseudopotential on this center.
  111          9
                                   No pseudopotential on this center.
  112          1
                                   No pseudopotential on this center.
  113          1
                                   No pseudopotential on this center.
  114          1
                                   No pseudopotential on this center.
 ======================================================================================================
 There are   978 symmetry adapted cartesian basis functions of A   symmetry.
 There are   920 symmetry adapted basis functions of A   symmetry.
   920 basis functions,  1839 primitive gaussians,   978 cartesian basis functions
   221 alpha electrons      221 beta electrons
       nuclear repulsion energy     10266.5067676947 Hartrees.
 NAtoms=  114 NActive=  114 NUniq=  114 SFac= 1.00D+00 NAtFMM=   60 NAOKFM=T Big=T
 Integral buffers will be    131072 words long.
 Raffenetti 2 integral format.
 Two-electron integral symmetry is turned on.
 One-electron integrals computed using PRISM.
   1 Symmetry operations used in ECPInt.
 ECPInt:  NShTT=   60031 NPrTT=  371420 LenC2=   44943 LenP2D=  137695.
 LDataN:  DoStor=T MaxTD1= 6 Len=  172
 NBasis=   920 RedAO= T EigKep=  4.77D-04  NBF=   920
 NBsUse=   920 1.00D-06 EigRej= -1.00D+00 NBFU=   920
 Defaulting to unpruned grid for atomic number  77.
 ExpMin= 2.90D-02 ExpMax= 7.00D+03 ExpMxC= 1.05D+03 IAcc=3 IRadAn=         5 AccDes= 0.00D+00
 Harris functional with IExCor= 1009 and IRadAn=       5 diagonalized for initial guess.
 HarFok:  IExCor= 1009 AccDes= 0.00D+00 IRadAn=         5 IDoV= 1 UseB2=F ITyADJ=14
 ICtDFT=  3500011 ScaDFX=  1.000000  1.000000  1.000000  1.000000
 Defaulting to unpruned grid for atomic number  77.
 FoFCou: FMM=F IPFlag=           0 FMFlag=      100000 FMFlg1=        2001
         NFxFlg=           0 DoJE=T BraDBF=F KetDBF=T FulRan=T
         wScrn=  0.000000 ICntrl=       500 IOpCl=  0 I1Cent=   200000004 NGrid=           0
         NMat0=    1 NMatS0=      1 NMatT0=    0 NMatD0=    1 NMtDS0=    0 NMtDT0=    0
 Petite list used in FoFCou.
 Requested convergence on RMS density matrix=1.00D-08 within 128 cycles.
 Requested convergence on MAX density matrix=1.00D-06.
 Requested convergence on             energy=1.00D-06.
 No special actions if energy rises.
 Defaulting to unpruned grid for atomic number  77.
 Defaulting to unpruned grid for atomic number  77.
 Defaulting to unpruned grid for atomic number  77.
 Defaulting to unpruned grid for atomic number  77.
 Defaulting to unpruned grid for atomic number  77.
 Defaulting to unpruned grid for atomic number  77.
 Defaulting to unpruned grid for atomic number  77.
 Defaulting to unpruned grid for atomic number  77.
 Defaulting to unpruned grid for atomic number  77.
 Defaulting to unpruned grid for atomic number  77.
 Defaulting to unpruned grid for atomic number  77.
 Defaulting to unpruned grid for atomic number  77.
 Defaulting to unpruned grid for atomic number  77.
 Defaulting to unpruned grid for atomic number  77.
 Defaulting to unpruned grid for atomic number  77.
 Defaulting to unpruned grid for atomic number  77.
 SCF Done:  E(RM06) =  -2912.14337480     A.U. after   17 cycles
            NFock= 17  Conv=0.34D-08     -V/T= 2.0313
 DoSCS=F DFT=T ScalE2(SS,OS)=  1.000000  1.000000
 Range of M.O.s used for correlation:     1   920
 NBasis=   920 NAE=   221 NBE=   221 NFC=     0 NFV=     0
 NROrb=    920 NOA=   221 NOB=   221 NVA=   699 NVB=   699

 **** Warning!!: The largest alpha MO coefficient is  0.10816241D+02

   1 Symmetry operations used in ECPInt.
 ECPInt:  NShTT=   60031 NPrTT=  371420 LenC2=   44943 LenP2D=  137695.
 LDataN:  DoStor=T MaxTD1= 7 Len=  274
 Number of processors reduced to   7 by ecpmxn.
 Symmetrizing basis deriv contribution to polar:
 IMax=3 JMax=2 DiffMx= 0.00D+00
 G2DrvN: will do   115 centers at a time, making    1 passes.
 Calling FoFCou, ICntrl=  3107 FMM=T I1Cent=   0 AccDes= 0.00D+00.
 Defaulting to unpruned grid for atomic number  77.
 Defaulting to unpruned grid for atomic number  77.
 Defaulting to unpruned grid for atomic number  77.
 Defaulting to unpruned grid for atomic number  77.
 Defaulting to unpruned grid for atomic number  77.
 Defaulting to unpruned grid for atomic number  77.
 Defaulting to unpruned grid for atomic number  77.
 Defaulting to unpruned grid for atomic number  77.
 Defaulting to unpruned grid for atomic number  77.
 Defaulting to unpruned grid for atomic number  77.
 Defaulting to unpruned grid for atomic number  77.
 Defaulting to unpruned grid for atomic number  77.
 Defaulting to unpruned grid for atomic number  77.
 Defaulting to unpruned grid for atomic number  77.
 Defaulting to unpruned grid for atomic number  77.
 Defaulting to unpruned grid for atomic number  77.
 End of G2Drv F.D. properties file   721 does not exist.
 End of G2Drv F.D. properties file   722 does not exist.
 End of G2Drv F.D. properties file   788 does not exist.
          IDoAtm=11111111111111111111111111111111111111111111111111
          IDoAtm=11111111111111111111111111111111111111111111111111
          IDoAtm=11111111111111
          Differentiating once with respect to electric field.
                with respect to dipole field.
          Differentiating once with respect to nuclear coordinates.
 Defaulting to unpruned grid for atomic number  77.
 CalDSu exits because no D1Ps are significant.
 Defaulting to unpruned grid for atomic number  77.
 Defaulting to unpruned grid for atomic number  77.
 Defaulting to unpruned grid for atomic number  77.
 Defaulting to unpruned grid for atomic number  77.
 Defaulting to unpruned grid for atomic number  77.
 Defaulting to unpruned grid for atomic number  77.
 Defaulting to unpruned grid for atomic number  77.
 Defaulting to unpruned grid for atomic number  77.
 Defaulting to unpruned grid for atomic number  77.
 Defaulting to unpruned grid for atomic number  77.
 Defaulting to unpruned grid for atomic number  77.
 Defaulting to unpruned grid for atomic number  77.
 Defaulting to unpruned grid for atomic number  77.
 Defaulting to unpruned grid for atomic number  77.
 Defaulting to unpruned grid for atomic number  77.
 Defaulting to unpruned grid for atomic number  77.
          There are   345 degrees of freedom in the 1st order CPHF.  IDoFFX=6 NUNeed=     3.
    342 vectors produced by pass  0 Test12= 1.54D-13 1.00D-09 XBig12= 5.38D+02 9.55D+00.
 AX will form    72 AO Fock derivatives at one time.
    342 vectors produced by pass  1 Test12= 1.54D-13 1.00D-09 XBig12= 7.87D+01 1.00D+00.
    342 vectors produced by pass  2 Test12= 1.54D-13 1.00D-09 XBig12= 1.05D+00 1.04D-01.
    342 vectors produced by pass  3 Test12= 1.54D-13 1.00D-09 XBig12= 8.26D-03 7.95D-03.
    342 vectors produced by pass  4 Test12= 1.54D-13 1.00D-09 XBig12= 3.52D-05 3.35D-04.
    306 vectors produced by pass  5 Test12= 1.54D-13 1.00D-09 XBig12= 7.62D-08 1.94D-05.
     87 vectors produced by pass  6 Test12= 1.54D-13 1.00D-09 XBig12= 1.20D-10 6.63D-07.
      3 vectors produced by pass  7 Test12= 1.54D-13 1.00D-09 XBig12= 1.65D-13 2.50D-08.
 InvSVY:  IOpt=1 It=  1 EMax= 1.78D-14
 Solved reduced A of dimension  2106 with   345 vectors.
 Isotropic polarizability for W=    0.000000      512.93 Bohr**3.
 End of Minotr F.D. properties file   721 does not exist.
 End of Minotr F.D. properties file   722 does not exist.
 End of Minotr F.D. properties file   788 does not exist.
 Hyperfine terms turned off by default for NAtoms > 100.

 **********************************************************************

            Population analysis using the SCF Density.

 **********************************************************************

 Orbital symmetries:
       Occupied  (A) (A) (A) (A) (A) (A) (A) (A) (A) (A) (A) (A)
                 (A) (A) (A) (A) (A) (A) (A) (A) (A) (A) (A) (A)
                 (A) (A) (A) (A) (A) (A) (A) (A) (A) (A) (A) (A)
                 (A) (A) (A) (A) (A) (A) (A) (A) (A) (A) (A) (A)
                 (A) (A) (A) (A) (A) (A) (A) (A) (A) (A) (A) (A)
                 (A) (A) (A) (A) (A) (A) (A) (A) (A) (A) (A) (A)
                 (A) (A) (A) (A) (A) (A) (A) (A) (A) (A) (A) (A)
                 (A) (A) (A) (A) (A) (A) (A) (A) (A) (A) (A) (A)
                 (A) (A) (A) (A) (A) (A) (A) (A) (A) (A) (A) (A)
                 (A) (A) (A) (A) (A) (A) (A) (A) (A) (A) (A) (A)
                 (A) (A) (A) (A) (A) (A) (A) (A) (A) (A) (A) (A)
                 (A) (A) (A) (A) (A) (A) (A) (A) (A) (A) (A) (A)
                 (A) (A) (A) (A) (A) (A) (A) (A) (A) (A) (A) (A)
                 (A) (A) (A) (A) (A) (A) (A) (A) (A) (A) (A) (A)
                 (A) (A) (A) (A) (A) (A) (A) (A) (A) (A) (A) (A)
                 (A) (A) (A) (A) (A) (A) (A) (A) (A) (A) (A) (A)
                 (A) (A) (A) (A) (A) (A) (A) (A) (A) (A) (A) (A)
                 (A) (A) (A) (A) (A) (A) (A) (A) (A) (A) (A) (A)
                 (A) (A) (A) (A) (A)
       Virtual   (A) (A) (A) (A) (A) (A) (A) (A) (A) (A) (A) (A)
                 (A) (A) (A) (A) (A) (A) (A) (A) (A) (A) (A) (A)
                 (A) (A) (A) (A) (A) (A) (A) (A) (A) (A) (A) (A)
                 (A) (A) (A) (A) (A) (A) (A) (A) (A) (A) (A) (A)
                 (A) (A) (A) (A) (A) (A) (A) (A) (A) (A) (A) (A)
                 (A) (A) (A) (A) (A) (A) (A) (A) (A) (A) (A) (A)
                 (A) (A) (A) (A) (A) (A) (A) (A) (A) (A) (A) (A)
                 (A) (A) (A) (A) (A) (A) (A) (A) (A) (A) (A) (A)
                 (A) (A) (A) (A) (A) (A) (A) (A) (A) (A) (A) (A)
                 (A) (A) (A) (A) (A) (A) (A) (A) (A) (A) (A) (A)
                 (A) (A) (A) (A) (A) (A) (A) (A) (A) (A) (A) (A)
                 (A) (A) (A) (A) (A) (A) (A) (A) (A) (A) (A) (A)
                 (A) (A) (A) (A) (A) (A) (A) (A) (A) (A) (A) (A)
                 (A) (A) (A) (A) (A) (A) (A) (A) (A) (A) (A) (A)
                 (A) (A) (A) (A) (A) (A) (A) (A) (A) (A) (A) (A)
                 (A) (A) (A) (A) (A) (A) (A) (A) (A) (A) (A) (A)
                 (A) (A) (A) (A) (A) (A) (A) (A) (A) (A) (A) (A)
                 (A) (A) (A) (A) (A) (A) (A) (A) (A) (A) (A) (A)
                 (A) (A) (A) (A) (A) (A) (A) (A) (A) (A) (A) (A)
                 (A) (A) (A) (A) (A) (A) (A) (A) (A) (A) (A) (A)
                 (A) (A) (A) (A) (A) (A) (A) (A) (A) (A) (A) (A)
                 (A) (A) (A) (A) (A) (A) (A) (A) (A) (A) (A) (A)
                 (A) (A) (A) (A) (A) (A) (A) (A) (A) (A) (A) (A)
                 (A) (A) (A) (A) (A) (A) (A) (A) (A) (A) (A) (A)
                 (A) (A) (A) (A) (A) (A) (A) (A) (A) (A) (A) (A)
                 (A) (A) (A) (A) (A) (A) (A) (A) (A) (A) (A) (A)
                 (A) (A) (A) (A) (A) (A) (A) (A) (A) (A) (A) (A)
                 (A) (A) (A) (A) (A) (A) (A) (A) (A) (A) (A) (A)
                 (A) (A) (A) (A) (A) (A) (A) (A) (A) (A) (A) (A)
                 (A) (A) (A) (A) (A) (A) (A) (A) (A) (A) (A) (A)
                 (A) (A) (A) (A) (A) (A) (A) (A) (A) (A) (A) (A)
                 (A) (A) (A) (A) (A) (A) (A) (A) (A) (A) (A) (A)
                 (A) (A) (A) (A) (A) (A) (A) (A) (A) (A) (A) (A)
                 (A) (A) (A) (A) (A) (A) (A) (A) (A) (A) (A) (A)
                 (A) (A) (A) (A) (A) (A) (A) (A) (A) (A) (A) (A)
                 (A) (A) (A) (A) (A) (A) (A) (A) (A) (A) (A) (A)
                 (A) (A) (A) (A) (A) (A) (A) (A) (A) (A) (A) (A)
                 (A) (A) (A) (A) (A) (A) (A) (A) (A) (A) (A) (A)
                 (A) (A) (A) (A) (A) (A) (A) (A) (A) (A) (A) (A)
                 (A) (A) (A) (A) (A) (A) (A) (A) (A) (A) (A) (A)
                 (A) (A) (A) (A) (A) (A) (A) (A) (A) (A) (A) (A)
                 (A) (A) (A) (A) (A) (A) (A) (A) (A) (A) (A) (A)
                 (A) (A) (A) (A) (A) (A) (A) (A) (A) (A) (A) (A)
                 (A) (A) (A) (A) (A) (A) (A) (A) (A) (A) (A) (A)
                 (A) (A) (A) (A) (A) (A) (A) (A) (A) (A) (A) (A)
                 (A) (A) (A) (A) (A) (A) (A) (A) (A) (A) (A) (A)
                 (A) (A) (A) (A) (A) (A) (A) (A) (A) (A) (A) (A)
                 (A) (A) (A) (A) (A) (A) (A) (A) (A) (A) (A) (A)
                 (A) (A) (A) (A) (A) (A) (A) (A) (A) (A) (A) (A)
                 (A) (A) (A) (A) (A) (A) (A) (A) (A) (A) (A) (A)
                 (A) (A) (A) (A) (A) (A) (A) (A) (A) (A) (A) (A)
                 (A) (A) (A) (A) (A) (A) (A) (A) (A) (A) (A) (A)
                 (A) (A) (A) (A) (A) (A) (A) (A) (A) (A) (A) (A)
                 (A) (A) (A) (A) (A) (A) (A) (A) (A) (A) (A) (A)
                 (A) (A) (A) (A) (A) (A) (A) (A) (A) (A) (A) (A)
                 (A) (A) (A) (A) (A) (A) (A) (A) (A) (A) (A) (A)
                 (A) (A) (A) (A) (A) (A) (A) (A) (A) (A) (A) (A)
                 (A) (A) (A) (A) (A) (A) (A) (A) (A) (A) (A) (A)
                 (A) (A) (A)
 The electronic state is 1-A.
 Alpha  occ. eigenvalues --  -24.84612 -24.83932 -24.83888 -24.83724 -24.83324
 Alpha  occ. eigenvalues --  -24.83241 -19.20536 -19.20465 -19.20120 -19.19914
 Alpha  occ. eigenvalues --  -19.19499 -19.19407 -19.17745 -14.46976 -14.45962
 Alpha  occ. eigenvalues --  -14.41287 -10.52745 -10.51985 -10.34568 -10.33940
 Alpha  occ. eigenvalues --  -10.33444 -10.33025 -10.31863 -10.31737 -10.31154
 Alpha  occ. eigenvalues --  -10.30968 -10.30811 -10.30279 -10.30165 -10.29380
 Alpha  occ. eigenvalues --  -10.29357 -10.29176 -10.28922 -10.28721 -10.28414
 Alpha  occ. eigenvalues --  -10.28387 -10.25342 -10.24694 -10.24169 -10.22990
 Alpha  occ. eigenvalues --  -10.22948 -10.22920 -10.22599 -10.22466 -10.22382
 Alpha  occ. eigenvalues --  -10.22351 -10.22139 -10.22118 -10.21885 -10.21615
 Alpha  occ. eigenvalues --  -10.21493 -10.21397 -10.21000  -6.80343  -6.78883
 Alpha  occ. eigenvalues --   -6.78753  -3.61096  -2.03827  -2.03054  -2.02648
 Alpha  occ. eigenvalues --   -1.37067  -1.36313  -1.28627  -1.27985  -1.27818
 Alpha  occ. eigenvalues --   -1.27316  -1.06170  -1.05811  -1.05527  -1.03671
 Alpha  occ. eigenvalues --   -1.02208  -0.99661  -0.99218  -0.98907  -0.98694
 Alpha  occ. eigenvalues --   -0.93516  -0.88054  -0.86959  -0.85535  -0.81768
 Alpha  occ. eigenvalues --   -0.80331  -0.80220  -0.79586  -0.78225  -0.77121
 Alpha  occ. eigenvalues --   -0.76777  -0.74785  -0.74682  -0.73962  -0.73798
 Alpha  occ. eigenvalues --   -0.73499  -0.70560  -0.70323  -0.70288  -0.69803
 Alpha  occ. eigenvalues --   -0.69491  -0.67663  -0.67525  -0.67454  -0.66613
 Alpha  occ. eigenvalues --   -0.66429  -0.65753  -0.63906  -0.63134  -0.62982
 Alpha  occ. eigenvalues --   -0.62324  -0.62310  -0.62114  -0.61655  -0.61350
 Alpha  occ. eigenvalues --   -0.61114  -0.60672  -0.60509  -0.57951  -0.55665
 Alpha  occ. eigenvalues --   -0.54751  -0.54344  -0.54034  -0.53675  -0.53320
 Alpha  occ. eigenvalues --   -0.52981  -0.52883  -0.52647  -0.50865  -0.50561
 Alpha  occ. eigenvalues --   -0.50438  -0.50332  -0.49786  -0.49648  -0.49272
 Alpha  occ. eigenvalues --   -0.48754  -0.48625  -0.48216  -0.47632  -0.47165
 Alpha  occ. eigenvalues --   -0.46968  -0.46716  -0.46640  -0.46432  -0.46309
 Alpha  occ. eigenvalues --   -0.46251  -0.45985  -0.45912  -0.45695  -0.45482
 Alpha  occ. eigenvalues --   -0.45156  -0.44983  -0.44380  -0.44281  -0.44273
 Alpha  occ. eigenvalues --   -0.44129  -0.43990  -0.43617  -0.43502  -0.43384
 Alpha  occ. eigenvalues --   -0.43210  -0.42932  -0.42537  -0.41919  -0.41501
 Alpha  occ. eigenvalues --   -0.41318  -0.40759  -0.40623  -0.40059  -0.39969
 Alpha  occ. eigenvalues --   -0.39875  -0.39714  -0.39553  -0.39414  -0.39198
 Alpha  occ. eigenvalues --   -0.39116  -0.39058  -0.38951  -0.38761  -0.38489
 Alpha  occ. eigenvalues --   -0.38332  -0.37835  -0.37527  -0.37373  -0.37218
 Alpha  occ. eigenvalues --   -0.36790  -0.36719  -0.36534  -0.36477  -0.36437
 Alpha  occ. eigenvalues --   -0.36211  -0.35971  -0.35886  -0.35820  -0.35506
 Alpha  occ. eigenvalues --   -0.35394  -0.35261  -0.34804  -0.34728  -0.34430
 Alpha  occ. eigenvalues --   -0.34180  -0.33993  -0.33783  -0.33613  -0.32851
 Alpha  occ. eigenvalues --   -0.32755  -0.32004  -0.31991  -0.31346  -0.31147
 Alpha  occ. eigenvalues --   -0.31102  -0.30251  -0.29846  -0.29552  -0.29265
 Alpha  occ. eigenvalues --   -0.29185  -0.27128  -0.26176  -0.25805  -0.25308
 Alpha  occ. eigenvalues --   -0.25212  -0.24829  -0.23846  -0.21905  -0.21566
 Alpha  occ. eigenvalues --   -0.21305
 Alpha virt. eigenvalues --   -0.09755  -0.06302  -0.05116  -0.01853   0.00011
 Alpha virt. eigenvalues --    0.02806   0.03396   0.04958   0.05523   0.06538
 Alpha virt. eigenvalues --    0.07026   0.07402   0.08179   0.09523   0.09867
 Alpha virt. eigenvalues --    0.10148   0.10365   0.11140   0.11241   0.11661
 Alpha virt. eigenvalues --    0.11864   0.12299   0.12379   0.12713   0.12939
 Alpha virt. eigenvalues --    0.13141   0.13415   0.13776   0.13928   0.14295
 Alpha virt. eigenvalues --    0.14375   0.14776   0.15024   0.15083   0.15396
 Alpha virt. eigenvalues --    0.15537   0.15626   0.15799   0.16053   0.16266
 Alpha virt. eigenvalues --    0.16516   0.16641   0.16848   0.16973   0.17134
 Alpha virt. eigenvalues --    0.17272   0.17549   0.17879   0.18025   0.18219
 Alpha virt. eigenvalues --    0.18532   0.18593   0.18736   0.18935   0.19069
 Alpha virt. eigenvalues --    0.19198   0.19287   0.19386   0.19427   0.19644
 Alpha virt. eigenvalues --    0.19878   0.20165   0.20274   0.20460   0.20548
 Alpha virt. eigenvalues --    0.20600   0.21119   0.21235   0.21356   0.21584
 Alpha virt. eigenvalues --    0.21753   0.21975   0.22168   0.22179   0.22777
 Alpha virt. eigenvalues --    0.22922   0.23044   0.23162   0.23346   0.23687
 Alpha virt. eigenvalues --    0.24085   0.24348   0.24506   0.24585   0.24707
 Alpha virt. eigenvalues --    0.24875   0.25092   0.25591   0.25695   0.25813
 Alpha virt. eigenvalues --    0.26178   0.26450   0.26621   0.26798   0.27170
 Alpha virt. eigenvalues --    0.27294   0.27465   0.28303   0.28496   0.28838
 Alpha virt. eigenvalues --    0.28942   0.29377   0.29598   0.30075   0.30301
 Alpha virt. eigenvalues --    0.30971   0.31648   0.32012   0.32172   0.33022
 Alpha virt. eigenvalues --    0.33181   0.33426   0.34436   0.34558   0.35049
 Alpha virt. eigenvalues --    0.35460   0.35878   0.36498   0.36803   0.37961
 Alpha virt. eigenvalues --    0.38458   0.39023   0.39446   0.40157   0.41314
 Alpha virt. eigenvalues --    0.41360   0.42352   0.44525   0.45123   0.45767
 Alpha virt. eigenvalues --    0.46453   0.46708   0.47319   0.48647   0.48881
 Alpha virt. eigenvalues --    0.49188   0.49493   0.49670   0.50157   0.50618
 Alpha virt. eigenvalues --    0.51232   0.51296   0.51500   0.51711   0.52018
 Alpha virt. eigenvalues --    0.52096   0.52424   0.53031   0.53367   0.53754
 Alpha virt. eigenvalues --    0.54178   0.54654   0.54994   0.55210   0.55393
 Alpha virt. eigenvalues --    0.55943   0.56277   0.56646   0.56912   0.57470
 Alpha virt. eigenvalues --    0.57559   0.58014   0.58063   0.58275   0.58607
 Alpha virt. eigenvalues --    0.58767   0.59141   0.59336   0.59470   0.59553
 Alpha virt. eigenvalues --    0.59905   0.60233   0.60509   0.60765   0.60978
 Alpha virt. eigenvalues --    0.61402   0.61665   0.61773   0.62122   0.62632
 Alpha virt. eigenvalues --    0.62773   0.63214   0.63768   0.63851   0.64417
 Alpha virt. eigenvalues --    0.64654   0.64821   0.65215   0.65660   0.65830
 Alpha virt. eigenvalues --    0.66270   0.66632   0.66862   0.67116   0.67698
 Alpha virt. eigenvalues --    0.67803   0.68207   0.68558   0.69169   0.69381
 Alpha virt. eigenvalues --    0.69507   0.70155   0.70234   0.70499   0.70971
 Alpha virt. eigenvalues --    0.71281   0.71364   0.71762   0.71933   0.72257
 Alpha virt. eigenvalues --    0.72533   0.72719   0.73554   0.73771   0.74123
 Alpha virt. eigenvalues --    0.74270   0.74469   0.75094   0.75159   0.75691
 Alpha virt. eigenvalues --    0.76155   0.76671   0.76895   0.77208   0.77335
 Alpha virt. eigenvalues --    0.78186   0.78273   0.78566   0.79376   0.79542
 Alpha virt. eigenvalues --    0.79695   0.80468   0.80652   0.81079   0.81757
 Alpha virt. eigenvalues --    0.82172   0.82596   0.83014   0.83338   0.83505
 Alpha virt. eigenvalues --    0.83644   0.84082   0.84192   0.84609   0.84804
 Alpha virt. eigenvalues --    0.85300   0.85553   0.85819   0.86128   0.86348
 Alpha virt. eigenvalues --    0.86426   0.87005   0.87332   0.87666   0.87691
 Alpha virt. eigenvalues --    0.87851   0.88161   0.88611   0.88681   0.88866
 Alpha virt. eigenvalues --    0.89005   0.89244   0.89451   0.89527   0.89935
 Alpha virt. eigenvalues --    0.90130   0.90516   0.90721   0.90946   0.91035
 Alpha virt. eigenvalues --    0.91415   0.91619   0.91708   0.91834   0.92496
 Alpha virt. eigenvalues --    0.92686   0.92902   0.93018   0.93389   0.93419
 Alpha virt. eigenvalues --    0.93909   0.94360   0.94614   0.94814   0.94908
 Alpha virt. eigenvalues --    0.95182   0.95597   0.95661   0.96009   0.96470
 Alpha virt. eigenvalues --    0.96762   0.97320   0.97888   0.98045   0.98412
 Alpha virt. eigenvalues --    0.98647   0.98981   0.99320   0.99869   1.00049
 Alpha virt. eigenvalues --    1.01129   1.01386   1.01411   1.01749   1.02014
 Alpha virt. eigenvalues --    1.02556   1.02729   1.03372   1.04268   1.04568
 Alpha virt. eigenvalues --    1.05077   1.05269   1.05861   1.06229   1.06994
 Alpha virt. eigenvalues --    1.07459   1.07711   1.08148   1.08732   1.09251
 Alpha virt. eigenvalues --    1.09630   1.10066   1.10420   1.10855   1.11913
 Alpha virt. eigenvalues --    1.12149   1.12985   1.13220   1.13959   1.14563
 Alpha virt. eigenvalues --    1.14848   1.15046   1.15191   1.16062   1.16558
 Alpha virt. eigenvalues --    1.17076   1.17399   1.17511   1.18054   1.18487
 Alpha virt. eigenvalues --    1.19004   1.19718   1.20044   1.20731   1.20764
 Alpha virt. eigenvalues --    1.21622   1.21791   1.22205   1.22583   1.23138
 Alpha virt. eigenvalues --    1.23764   1.24113   1.24715   1.25569   1.25931
 Alpha virt. eigenvalues --    1.26636   1.27396   1.28114   1.28390   1.28787
 Alpha virt. eigenvalues --    1.29898   1.30372   1.31295   1.31733   1.32588
 Alpha virt. eigenvalues --    1.32881   1.33198   1.33277   1.33654   1.33846
 Alpha virt. eigenvalues --    1.34223   1.34677   1.35107   1.35709   1.36518
 Alpha virt. eigenvalues --    1.36821   1.37319   1.37671   1.38015   1.38379
 Alpha virt. eigenvalues --    1.38652   1.38983   1.39060   1.39380   1.39970
 Alpha virt. eigenvalues --    1.40872   1.41080   1.41491   1.42390   1.42428
 Alpha virt. eigenvalues --    1.42950   1.43427   1.43864   1.44040   1.44535
 Alpha virt. eigenvalues --    1.45382   1.46213   1.46413   1.46721   1.47211
 Alpha virt. eigenvalues --    1.47528   1.48138   1.48749   1.49099   1.49332
 Alpha virt. eigenvalues --    1.49701   1.50773   1.51846   1.52502   1.53354
 Alpha virt. eigenvalues --    1.54813   1.55284   1.55452   1.56539   1.57390
 Alpha virt. eigenvalues --    1.58753   1.59314   1.59842   1.60290   1.61318
 Alpha virt. eigenvalues --    1.62283   1.62939   1.63320   1.64216   1.64450
 Alpha virt. eigenvalues --    1.64596   1.64780   1.65172   1.65490   1.66180
 Alpha virt. eigenvalues --    1.67318   1.67412   1.67647   1.68386   1.68854
 Alpha virt. eigenvalues --    1.69477   1.69585   1.69824   1.70000   1.70536
 Alpha virt. eigenvalues --    1.71493   1.72295   1.72619   1.73449   1.73808
 Alpha virt. eigenvalues --    1.74306   1.75230   1.75857   1.76254   1.76906
 Alpha virt. eigenvalues --    1.77291   1.77853   1.78300   1.78881   1.79186
 Alpha virt. eigenvalues --    1.79510   1.79999   1.80044   1.80675   1.80905
 Alpha virt. eigenvalues --    1.81574   1.82167   1.82674   1.82911   1.83559
 Alpha virt. eigenvalues --    1.84149   1.84409   1.84671   1.84914   1.85467
 Alpha virt. eigenvalues --    1.85787   1.86289   1.86465   1.86808   1.87193
 Alpha virt. eigenvalues --    1.87457   1.87800   1.87991   1.88437   1.88795
 Alpha virt. eigenvalues --    1.88956   1.89739   1.89913   1.90991   1.91316
 Alpha virt. eigenvalues --    1.91475   1.91765   1.92127   1.92508   1.92772
 Alpha virt. eigenvalues --    1.92969   1.93093   1.93352   1.93632   1.94182
 Alpha virt. eigenvalues --    1.94371   1.94831   1.94946   1.95405   1.95838
 Alpha virt. eigenvalues --    1.96301   1.96973   1.97362   1.97568   1.98440
 Alpha virt. eigenvalues --    1.98764   1.98848   1.99275   1.99492   2.00511
 Alpha virt. eigenvalues --    2.00678   2.01436   2.01555   2.01918   2.02284
 Alpha virt. eigenvalues --    2.02417   2.02717   2.02912   2.03364   2.03517
 Alpha virt. eigenvalues --    2.04222   2.04517   2.05083   2.05248   2.05530
 Alpha virt. eigenvalues --    2.05917   2.06388   2.06899   2.07065   2.07324
 Alpha virt. eigenvalues --    2.07438   2.07645   2.08370   2.08483   2.08743
 Alpha virt. eigenvalues --    2.08959   2.09035   2.09186   2.09692   2.10363
 Alpha virt. eigenvalues --    2.10498   2.10924   2.11299   2.11404   2.11558
 Alpha virt. eigenvalues --    2.12285   2.12657   2.13411   2.13701   2.14012
 Alpha virt. eigenvalues --    2.14522   2.15245   2.16014   2.16159   2.16915
 Alpha virt. eigenvalues --    2.17181   2.17193   2.17603   2.18083   2.18782
 Alpha virt. eigenvalues --    2.19319   2.19332   2.19657   2.19754   2.19851
 Alpha virt. eigenvalues --    2.20484   2.20857   2.21272   2.21360   2.21829
 Alpha virt. eigenvalues --    2.22311   2.22529   2.23027   2.23449   2.23950
 Alpha virt. eigenvalues --    2.24235   2.24296   2.24722   2.25364   2.25831
 Alpha virt. eigenvalues --    2.26185   2.26466   2.26775   2.26919   2.27349
 Alpha virt. eigenvalues --    2.27616   2.27705   2.27918   2.28392   2.28496
 Alpha virt. eigenvalues --    2.29851   2.30194   2.31114   2.31434   2.31631
 Alpha virt. eigenvalues --    2.32249   2.32503   2.32888   2.33246   2.33837
 Alpha virt. eigenvalues --    2.34015   2.34720   2.35626   2.36410   2.37014
 Alpha virt. eigenvalues --    2.38367   2.38969   2.39095   2.39416   2.40677
 Alpha virt. eigenvalues --    2.41354   2.43533   2.44346   2.44945   2.45232
 Alpha virt. eigenvalues --    2.46644   2.47445   2.47636   2.48172   2.48657
 Alpha virt. eigenvalues --    2.49214   2.49512   2.50144   2.50405   2.50986
 Alpha virt. eigenvalues --    2.52021   2.52720   2.53865   2.54682   2.58891
 Alpha virt. eigenvalues --    2.59405   2.60132   2.60284   2.60681   2.61248
 Alpha virt. eigenvalues --    2.61675   2.63273   2.64247   2.64385   2.64790
 Alpha virt. eigenvalues --    2.64938   2.65148   2.65691   2.66344   2.66836
 Alpha virt. eigenvalues --    2.70090   2.72039   2.73139   2.75245   2.75727
 Alpha virt. eigenvalues --    2.76196   2.76653   2.77608   2.77947   2.78379
 Alpha virt. eigenvalues --    2.79331   2.79401   2.80069   2.80339   2.80983
 Alpha virt. eigenvalues --    2.81204   2.81391   2.81708   2.82391   2.82787
 Alpha virt. eigenvalues --    2.84630   2.85558   2.85910   2.87513   2.90022
 Alpha virt. eigenvalues --    2.90223   2.91820   2.93064   2.94074   2.94921
 Alpha virt. eigenvalues --    2.95911   2.96456   2.97753   2.99729   3.02031
 Alpha virt. eigenvalues --    3.02775   3.04192   3.05152   3.05994   3.06650
 Alpha virt. eigenvalues --    3.06894   3.07934   3.09114   3.11588   3.12507
 Alpha virt. eigenvalues --    3.12914   3.13310   3.14646   3.15638   3.21458
 Alpha virt. eigenvalues --    3.24199   3.31074   3.43526  12.33449
          Condensed to atoms (all electrons):
 Mulliken charges:
               1
     1  C    0.302132
     2  C    0.055171
     3  C   -0.077573
     4  C   -0.155483
     5  C   -0.186715
     6  C    0.297366
     7  C    0.032494
     8  C   -0.076927
     9  C   -0.154700
    10  C   -0.194557
    11  H    0.231704
    12  H    0.203401
    13  H    0.181102
    14  H    0.228982
    15  H    0.206452
    16  H    0.184885
    17  N   -0.483175
    18  N   -0.498529
    19  Ir  -0.203197
    20  O   -0.541042
    21  O   -0.505177
    22  O   -0.552588
    23  B    0.579734
    24  B    0.480728
    25  B    0.472153
    26  O   -0.500568
    27  O   -0.511280
    28  C    0.285187
    29  C    0.300900
    30  C    0.307131
    31  C    0.290046
    32  C    0.296118
    33  C    0.295282
    34  O   -0.529870
    35  C   -0.509471
    36  H    0.147274
    37  H    0.176487
    38  H    0.156878
    39  C   -0.504195
    40  H    0.161213
    41  H    0.153421
    42  H    0.164338
    43  C   -0.517051
    44  H    0.157369
    45  H    0.145481
    46  H    0.196583
    47  C   -0.499746
    48  H    0.156481
    49  H    0.189488
    50  H    0.142097
    51  C   -0.510012
    52  H    0.166490
    53  H    0.173078
    54  H    0.149287
    55  C   -0.511933
    56  H    0.173223
    57  H    0.146354
    58  H    0.180780
    59  C   -0.504476
    60  H    0.151566
    61  H    0.138415
    62  H    0.183855
    63  C   -0.509186
    64  H    0.163632
    65  H    0.152000
    66  H    0.170380
    67  C   -0.496826
    68  H    0.143601
    69  H    0.166755
    70  H    0.174239
    71  C   -0.511686
    72  H    0.167952
    73  H    0.173833
    74  H    0.146375
    75  C   -0.519225
    76  H    0.158527
    77  H    0.158425
    78  H    0.176172
    79  C   -0.509637
    80  H    0.164696
    81  H    0.154376
    82  H    0.169577
    83  H    0.227020
    84  C    0.593119
    85  O   -0.515336
    86  C   -0.411924
    87  C   -0.177076
    88  C   -0.483743
    89  H    0.166967
    90  N   -0.381156
    91  C   -0.165528
    92  C   -0.496824
    93  H    0.162942
    94  H    0.191419
    95  C    0.978529
    96  C    0.974748
    97  H    0.168127
    98  H    0.178082
    99  C   -0.482725
   100  H    0.181597
   101  H    0.159061
   102  H    0.170822
   103  H    0.191219
   104  H    0.159473
   105  H    0.148573
   106  F   -0.304589
   107  F   -0.313240
   108  F   -0.311358
   109  F   -0.305185
   110  F   -0.315601
   111  F   -0.306784
   112  H    0.176467
   113  H    0.152224
   114  H    0.183841
 Sum of Mulliken charges =  -0.00000
 Mulliken charges with hydrogens summed into heavy atoms:
               1
     1  C    0.302132
     2  C    0.286876
     3  C   -0.077573
     4  C    0.047918
     5  C   -0.005613
     6  C    0.297366
     7  C    0.261476
     8  C   -0.076927
     9  C    0.051752
    10  C   -0.009671
    17  N   -0.483175
    18  N   -0.498529
    19  Ir  -0.203197
    20  O   -0.541042
    21  O   -0.505177
    22  O   -0.552588
    23  B    0.579734
    24  B    0.480728
    25  B    0.472153
    26  O   -0.500568
    27  O   -0.511280
    28  C    0.285187
    29  C    0.300900
    30  C    0.307131
    31  C    0.290046
    32  C    0.296118
    33  C    0.295282
    34  O   -0.529870
    35  C   -0.028832
    39  C   -0.025222
    43  C   -0.017618
    47  C   -0.011680
    51  C   -0.021157
    55  C   -0.011576
    59  C   -0.030641
    63  C   -0.023175
    67  C   -0.012232
    71  C   -0.023525
    75  C   -0.026102
    79  C   -0.020988
    84  C    0.593119
    85  O   -0.515336
    86  C   -0.065714
    87  C    0.216911
    88  C    0.027737
    90  N   -0.381156
    91  C    0.188832
    92  C    0.002441
    95  C    0.978529
    96  C    0.974748
    99  C    0.029807
   106  F   -0.304589
   107  F   -0.313240
   108  F   -0.311358
   109  F   -0.305185
   110  F   -0.315601
   111  F   -0.306784
 APT charges:
               1
     1  C    0.169640
     2  C    0.042949
     3  C   -0.164753
     4  C    0.080005
     5  C   -0.169518
     6  C    0.217610
     7  C    0.050318
     8  C   -0.186026
     9  C    0.086695
    10  C   -0.187714
    11  H    0.143506
    12  H    0.058128
    13  H    0.045537
    14  H    0.129158
    15  H    0.071796
    16  H    0.049550
    17  N   -0.148979
    18  N   -0.154020
    19  Ir  -0.596568
    20  O   -0.977144
    21  O   -0.969490
    22  O   -1.062596
    23  B    1.243539
    24  B    1.185487
    25  B    1.237081
    26  O   -0.940083
    27  O   -0.967564
    28  C    0.469025
    29  C    0.490180
    30  C    0.493077
    31  C    0.498051
    32  C    0.501205
    33  C    0.467221
    34  O   -0.946863
    35  C   -0.042814
    36  H   -0.009671
    37  H    0.034506
    38  H   -0.017485
    39  C   -0.004015
    40  H    0.003706
    41  H   -0.019361
    42  H   -0.008260
    43  C   -0.011184
    44  H   -0.003764
    45  H   -0.021801
    46  H    0.032136
    47  C   -0.029710
    48  H    0.001509
    49  H    0.022041
    50  H   -0.027088
    51  C   -0.001918
    52  H   -0.001954
    53  H    0.005156
    54  H   -0.019999
    55  C   -0.036173
    56  H    0.002580
    57  H   -0.024733
    58  H    0.010724
    59  C   -0.041606
    60  H   -0.016669
    61  H   -0.010866
    62  H    0.030327
    63  C   -0.009717
    64  H   -0.004619
    65  H   -0.013416
    66  H    0.001181
    67  C   -0.036201
    68  H   -0.026952
    69  H    0.002532
    70  H    0.014507
    71  C   -0.006488
    72  H   -0.000519
    73  H    0.001111
    74  H   -0.018508
    75  C   -0.027333
    76  H   -0.019951
    77  H   -0.020218
    78  H    0.002648
    79  C   -0.003282
    80  H   -0.000458
    81  H   -0.022443
    82  H    0.001626
    83  H   -0.091564
    84  C    0.931359
    85  O   -0.778386
    86  C    0.008842
    87  C    0.382671
    88  C   -0.007429
    89  H    0.002061
    90  N   -0.779060
    91  C    0.329618
    92  C    0.007541
    93  H   -0.000569
    94  H    0.008436
    95  C    1.795770
    96  C    1.784631
    97  H   -0.025097
    98  H   -0.031585
    99  C    0.065032
   100  H    0.009353
   101  H   -0.019591
   102  H   -0.022467
   103  H    0.017624
   104  H   -0.018045
   105  H   -0.017576
   106  F   -0.501684
   107  F   -0.612886
   108  F   -0.587769
   109  F   -0.559142
   110  F   -0.591905
   111  F   -0.548983
   112  H   -0.006773
   113  H   -0.023418
   114  H    0.015431
 Sum of APT charges =  -0.00000
 APT charges with hydrogens summed into heavy atoms:
               1
     1  C    0.169640
     2  C    0.186455
     3  C   -0.164753
     4  C    0.138133
     5  C   -0.123981
     6  C    0.217610
     7  C    0.179476
     8  C   -0.186026
     9  C    0.158491
    10  C   -0.138164
    17  N   -0.148979
    18  N   -0.154020
    19  Ir  -0.596568
    20  O   -0.977144
    21  O   -0.969490
    22  O   -1.062596
    23  B    1.243539
    24  B    1.185487
    25  B    1.237081
    26  O   -0.940083
    27  O   -0.967564
    28  C    0.469025
    29  C    0.490180
    30  C    0.493077
    31  C    0.498051
    32  C    0.501205
    33  C    0.467221
    34  O   -0.946863
    35  C   -0.035464
    39  C   -0.027930
    43  C   -0.004613
    47  C   -0.033248
    51  C   -0.018715
    55  C   -0.047602
    59  C   -0.038814
    63  C   -0.026571
    67  C   -0.046115
    71  C   -0.024404
    75  C   -0.064854
    79  C   -0.024557
    84  C    0.931359
    85  O   -0.778386
    86  C   -0.047839
    87  C    0.293168
    88  C   -0.040135
    90  N   -0.779060
    91  C    0.337486
    92  C   -0.010455
    95  C    1.795770
    96  C    1.784631
    99  C    0.050273
   106  F   -0.501684
   107  F   -0.612886
   108  F   -0.587769
   109  F   -0.559142
   110  F   -0.591905
   111  F   -0.548983
 Electronic spatial extent (au):  <R**2>=          34152.4299
 Charge=              0.0000 electrons
 Dipole moment (field-independent basis, Debye):
    X=              1.2433    Y=              7.9363    Z=             -0.2496  Tot=              8.0370
 Quadrupole moment (field-independent basis, Debye-Ang):
   XX=           -351.0573   YY=           -323.8790   ZZ=           -353.3884
   XY=             -2.3576   XZ=             -5.7226   YZ=            -22.0249
 Traceless Quadrupole moment (field-independent basis, Debye-Ang):
   XX=             -8.2824   YY=             18.8959   ZZ=            -10.6135
   XY=             -2.3576   XZ=             -5.7226   YZ=            -22.0249
 Octapole moment (field-independent basis, Debye-Ang**2):
  XXX=             39.1103  YYY=            284.0979  ZZZ=             52.6187  XYY=             15.1025
  XXY=            -17.0195  XXZ=             29.1988  XZZ=             12.4377  YZZ=             86.5272
  YYZ=              2.6430  XYZ=             -9.2736
 Hexadecapole moment (field-independent basis, Debye-Ang**3):
 XXXX=         -18557.6042 YYYY=         -13062.5396 ZZZZ=         -11118.1629 XXXY=              9.7748
 XXXZ=             83.4996 YYYX=            107.5686 YYYZ=           -498.3194 ZZZX=            -47.1839
 ZZZY=           -195.0830 XXYY=          -5169.9857 XXZZ=          -4809.6142 YYZZ=          -4384.7064
 XXYZ=            -55.1615 YYXZ=             14.3954 ZZXY=            -20.9098
 N-N= 1.026650676769D+04 E-N=-2.732175751343D+04  KE= 2.823849871382D+03
  Exact polarizability:     568.172      -1.507     541.656       8.330     -25.909     428.954
 Approx polarizability:     821.688       2.852     799.699      21.891     -37.846     604.391
   1 Symmetry operations used in ECPInt.
 ECPInt:  NShTT=   60031 NPrTT=  371420 LenC2=   44943 LenP2D=  137695.
 LDataN:  DoStor=T MaxTD1= 8 Len=  415
 Calling FoFJK, ICntrl=    100127 FMM=F ISym2X=0 I1Cent= 0 IOpClX= 0 NMat=1 NMatS=1 NMatT=0.
 Defaulting to unpruned grid for atomic number  77.
 Defaulting to unpruned grid for atomic number  77.
 Defaulting to unpruned grid for atomic number  77.
 Defaulting to unpruned grid for atomic number  77.
 Defaulting to unpruned grid for atomic number  77.
 Defaulting to unpruned grid for atomic number  77.
 Defaulting to unpruned grid for atomic number  77.
 Defaulting to unpruned grid for atomic number  77.
 Defaulting to unpruned grid for atomic number  77.
 Defaulting to unpruned grid for atomic number  77.
 Defaulting to unpruned grid for atomic number  77.
 Defaulting to unpruned grid for atomic number  77.
 Defaulting to unpruned grid for atomic number  77.
 Defaulting to unpruned grid for atomic number  77.
 Defaulting to unpruned grid for atomic number  77.
 Defaulting to unpruned grid for atomic number  77.
 Full mass-weighted force constant matrix:
 Low frequencies ---   -5.0779   -0.0001    0.0002    0.0006    1.5320    4.6195
 Low frequencies ---   16.1039   22.6415   26.8813
 Diagonal vibrational polarizability:
       83.3738917      73.5870663     215.7837444
 Harmonic frequencies (cm**-1), IR intensities (KM/Mole), Raman scattering
 activities (A**4/AMU), depolarization ratios for plane and unpolarized
 incident light, reduced masses (AMU), force constants (mDyne/A),
 and normal coordinates:
                      1                      2                      3
                      A                      A                      A
 Frequencies --     16.0419                22.5002                26.7605
 Red. masses --      5.9774                 4.9687                 5.0416
 Frc consts  --      0.0009                 0.0015                 0.0021
 IR Inten    --      1.0020                 0.4986                 0.1334
  Atom AN      X      Y      Z        X      Y      Z        X      Y      Z
     1   6     0.02  -0.01  -0.05     0.01   0.02   0.04     0.01  -0.02  -0.02
     2   6     0.00   0.01   0.04     0.01   0.02  -0.00     0.01  -0.02  -0.01
     3   6     0.02   0.01  -0.01     0.00   0.03   0.08     0.01  -0.02  -0.03
     4   6     0.03   0.00  -0.09    -0.00   0.03   0.15     0.01  -0.02  -0.05
     5   6     0.04  -0.01  -0.11     0.00   0.03   0.13     0.01  -0.02  -0.05
     6   6     0.03  -0.02  -0.07     0.01   0.01   0.02     0.01  -0.01  -0.00
     7   6     0.01  -0.01   0.01     0.02  -0.02  -0.04     0.00   0.00   0.04
     8   6     0.03  -0.05  -0.08     0.01  -0.00  -0.01     0.00   0.01   0.05
     9   6     0.05  -0.08  -0.17     0.01   0.02   0.05     0.01   0.00   0.03
    10   6     0.04  -0.06  -0.16     0.01   0.03   0.06     0.01  -0.01   0.01
    11   1    -0.01   0.01   0.09     0.01   0.02  -0.05     0.02  -0.02   0.01
    12   1     0.04   0.01  -0.13    -0.01   0.03   0.23     0.01  -0.03  -0.07
    13   1     0.05  -0.01  -0.17     0.00   0.02   0.18     0.01  -0.02  -0.06
    14   1    -0.00   0.01   0.07     0.02  -0.03  -0.08     0.00   0.01   0.05
    15   1     0.06  -0.11  -0.24     0.01   0.03   0.08     0.01   0.00   0.04
    16   1     0.06  -0.09  -0.23     0.00   0.04   0.10     0.01  -0.01  -0.01
    17   7     0.01  -0.00   0.02     0.01   0.02  -0.02     0.01  -0.02  -0.01
    18   7     0.01   0.00   0.01     0.01  -0.01  -0.03     0.01  -0.01   0.01
    19  77    -0.01   0.01   0.05     0.00  -0.00  -0.03     0.01  -0.01   0.01
    20   8     0.00  -0.01   0.02    -0.00  -0.00  -0.02     0.01  -0.01   0.04
    21   8    -0.01  -0.01   0.05     0.02   0.03  -0.01     0.03   0.07   0.05
    22   8    -0.00   0.03   0.04    -0.00   0.01   0.01     0.01  -0.01  -0.03
    23   5    -0.04  -0.01   0.04    -0.03  -0.00  -0.05    -0.00   0.02   0.00
    24   5     0.00   0.01   0.03    -0.00   0.00  -0.03     0.01  -0.01   0.02
    25   5    -0.00   0.01   0.04    -0.01  -0.00  -0.01     0.02  -0.02  -0.01
    26   8     0.00  -0.02   0.03    -0.03  -0.00  -0.02     0.03  -0.04  -0.02
    27   8     0.02   0.01  -0.00    -0.00   0.00  -0.03     0.01  -0.01   0.01
    28   6     0.03  -0.00  -0.03     0.00   0.00  -0.02     0.02  -0.01   0.03
    29   6     0.02  -0.01  -0.01    -0.00  -0.00  -0.01     0.01  -0.01   0.05
    30   6     0.00   0.01   0.02    -0.01   0.02   0.03     0.02  -0.04  -0.06
    31   6     0.01  -0.01   0.01    -0.03   0.01   0.01     0.03  -0.04  -0.05
    32   6    -0.06  -0.03   0.03     0.01   0.04  -0.03    -0.01   0.09   0.01
    33   6    -0.09  -0.06   0.00    -0.07  -0.04  -0.07    -0.05   0.02  -0.06
    34   8    -0.09  -0.04   0.01    -0.11  -0.03  -0.10    -0.06   0.00  -0.07
    35   6     0.03   0.03  -0.02    -0.01  -0.00  -0.01    -0.01  -0.01   0.05
    36   1     0.03   0.03  -0.00    -0.01  -0.00  -0.00    -0.02  -0.01   0.06
    37   1     0.04   0.05  -0.01    -0.02  -0.01  -0.02    -0.02  -0.00   0.04
    38   1     0.04   0.03  -0.04    -0.02  -0.00  -0.01    -0.01  -0.01   0.06
    39   6     0.01  -0.04  -0.03     0.00  -0.01  -0.00     0.02  -0.02   0.07
    40   1     0.01  -0.04  -0.01     0.00  -0.01   0.00     0.01  -0.02   0.08
    41   1     0.02  -0.04  -0.06     0.01  -0.01  -0.00     0.02  -0.02   0.07
    42   1     0.00  -0.07  -0.02     0.01  -0.01  -0.00     0.03  -0.02   0.07
    43   6     0.04   0.02  -0.05    -0.00  -0.00  -0.02     0.00  -0.01   0.03
    44   1     0.04   0.02  -0.06     0.00  -0.00  -0.02     0.01  -0.01   0.01
    45   1     0.05   0.01  -0.07     0.00  -0.00  -0.01     0.01  -0.01   0.04
    46   1     0.04   0.04  -0.05    -0.00  -0.01  -0.02    -0.01  -0.01   0.02
    47   6     0.02  -0.03  -0.03     0.01   0.01  -0.02     0.04  -0.01   0.03
    48   1     0.03  -0.03  -0.04     0.02   0.02  -0.02     0.05   0.01   0.02
    49   1     0.01  -0.05  -0.02    -0.00   0.01  -0.02     0.03  -0.01   0.03
    50   1     0.03  -0.05  -0.05     0.03  -0.01  -0.01     0.06  -0.02   0.04
    51   6    -0.02  -0.06   0.02     0.08   0.02   0.05     0.03   0.08   0.05
    52   1     0.01  -0.10   0.02     0.09  -0.07   0.09     0.07   0.00   0.07
    53   1     0.00  -0.03   0.04     0.14   0.08   0.09     0.06   0.13   0.11
    54   1    -0.05  -0.08   0.01     0.07   0.02   0.04    -0.00   0.09   0.02
    55   6    -0.09   0.02   0.04     0.01   0.15  -0.07    -0.04   0.19  -0.00
    56   1    -0.11   0.04   0.04    -0.04   0.17  -0.13    -0.07   0.20  -0.03
    57   1    -0.12   0.02   0.02     0.01   0.17  -0.08    -0.07   0.22  -0.04
    58   1    -0.07   0.05   0.06     0.07   0.20  -0.04    -0.01   0.24   0.06
    59   6    -0.07  -0.12  -0.00    -0.07  -0.15  -0.02    -0.04  -0.07  -0.03
    60   1    -0.07  -0.13  -0.01    -0.03  -0.17   0.02    -0.03  -0.06  -0.02
    61   1    -0.09  -0.14  -0.02    -0.14  -0.20  -0.04    -0.07  -0.12  -0.08
    62   1    -0.03  -0.13   0.02    -0.03  -0.16   0.02     0.00  -0.10   0.01
    63   6    -0.14  -0.06  -0.02    -0.12  -0.01  -0.13    -0.10   0.06  -0.13
    64   1    -0.17  -0.09  -0.03    -0.16  -0.06  -0.17    -0.12   0.01  -0.18
    65   1    -0.14  -0.07  -0.02    -0.10   0.00  -0.11    -0.10   0.08  -0.12
    66   1    -0.16  -0.02  -0.01    -0.13   0.06  -0.16    -0.12   0.12  -0.14
    67   6     0.02  -0.00  -0.02     0.00   0.00  -0.00     0.02  -0.04  -0.06
    68   1     0.03   0.00  -0.04     0.02   0.02   0.00     0.02  -0.04  -0.08
    69   1     0.02  -0.02  -0.03     0.00  -0.01  -0.02     0.04  -0.05  -0.04
    70   1     0.02   0.02  -0.02     0.01   0.00  -0.01    -0.00  -0.03  -0.05
    71   6     0.01  -0.04   0.00    -0.06   0.01   0.02     0.06  -0.06  -0.06
    72   1     0.01  -0.05   0.02    -0.08   0.01   0.02     0.08  -0.06  -0.06
    73   1     0.01  -0.05  -0.01    -0.07   0.00  -0.00     0.06  -0.05  -0.05
    74   1     0.01  -0.04  -0.01    -0.05   0.02   0.04     0.05  -0.07  -0.08
    75   6    -0.00   0.00   0.05    -0.05   0.03   0.06     0.05  -0.06  -0.06
    76   1     0.00  -0.01   0.04    -0.07   0.05   0.08     0.06  -0.08  -0.09
    77   1    -0.01   0.02   0.06    -0.04   0.04   0.07     0.05  -0.06  -0.07
    78   1    -0.01  -0.02   0.06    -0.08   0.02   0.03     0.08  -0.06  -0.04
    79   6     0.00   0.04  -0.00     0.02   0.04   0.06    -0.01  -0.04  -0.10
    80   1    -0.01   0.06   0.01     0.03   0.05   0.09    -0.02  -0.04  -0.11
    81   1     0.02   0.03  -0.02     0.01   0.04   0.08     0.01  -0.05  -0.13
    82   1     0.01   0.05  -0.01     0.05   0.04   0.04    -0.03  -0.03  -0.10
    83   1    -0.01   0.04   0.03     0.02  -0.03  -0.02     0.01   0.00  -0.00
    84   6     0.02   0.05  -0.01     0.02  -0.04  -0.00    -0.05   0.04   0.01
    85   8     0.04   0.05  -0.03     0.01  -0.03   0.01    -0.06   0.04   0.01
    86   6     0.01   0.04  -0.01     0.03  -0.03  -0.00    -0.05   0.05   0.03
    87   6    -0.03   0.06   0.03     0.04  -0.04  -0.02    -0.02   0.02  -0.00
    88   6    -0.05   0.11   0.01     0.06  -0.07   0.01    -0.03   0.03  -0.03
    89   1    -0.05   0.05   0.06     0.06  -0.04  -0.04    -0.03   0.03   0.03
    90   7     0.00   0.06   0.01     0.03  -0.04  -0.01    -0.03   0.03  -0.01
    91   6     0.02   0.07   0.00     0.02  -0.04   0.00    -0.03   0.02  -0.04
    92   6     0.04   0.10  -0.00     0.03  -0.05   0.02    -0.07   0.01  -0.07
    93   1     0.01   0.07   0.01     0.01  -0.04   0.01     0.01   0.01  -0.06
    94   1     0.03   0.05  -0.01     0.01  -0.04  -0.01    -0.02   0.03  -0.01
    95   6     0.03  -0.06  -0.08     0.01  -0.00  -0.01    -0.00   0.01   0.07
    96   6     0.01   0.02   0.02     0.00   0.03   0.10     0.01  -0.03  -0.03
    97   1     0.00   0.06   0.01     0.03  -0.04  -0.01    -0.05   0.05   0.03
    98   1    -0.01   0.03  -0.01     0.04  -0.02  -0.01    -0.04   0.04   0.04
    99   6     0.02   0.04  -0.02     0.02  -0.03   0.00    -0.06   0.06   0.04
   100   1    -0.01   0.14  -0.00     0.04  -0.07   0.04    -0.03   0.00  -0.09
   101   1    -0.08   0.13  -0.00     0.06  -0.07  -0.00    -0.01   0.01   0.00
   102   1    -0.06   0.11   0.01     0.08  -0.09   0.01    -0.07   0.07  -0.04
[...]
 04026,0.00002966,0.00000357,0.00002937,-0.00000533,-0.00000423,-0.0000
 5105,0.00002727,0.00005170,0.00002925,-0.00008023,0.00000040,0.0000163
 9,-0.00001927,-0.00001337,0.00004548,-0.00004477,-0.00003992,-0.000043
 14,0.00002151,0.00002269,-0.00003328,0.00011931,0.00003963,-0.00007507
 ,0.00004990,-0.00002433,0.00002621,-0.00002210,0.00000127,0.00002943,-
 0.00007290,-0.00005916,-0.00001463,-0.00000485,0.00002785,0.00012068,0
 .00003452,0.00002538,0.00000815,0.00000338,0.00000900,-0.00001018,0.00
 001540,0.00000540,-0.00000769,0.00001158,0.00000734,-0.00001237,-0.000
 00547,-0.00000039,0.00004627,-0.00003213,-0.00001240,-0.00027605,0.000
 07659,-0.00004238,0.00005571,-0.00003670,-0.00002571,0.00008775,-0.000
 00498,0.00007681,0.00001880,-0.00001365,0.00001140,-0.00002812,-0.0000
 0736,-0.00004484,0.00000767,-0.00000438,0.00000196,-0.00000256,-0.0000
 0180,0.00000247,0.00001318,0.00000150,-0.00001438,-0.00000012,0.000002
 67,0.00001950,-0.00000014,-0.00000380,-0.00000157,0.00000604,0.0000009
 2,-0.00000746,-0.00000709,-0.00001566,0.00000159,0.00000147,-0.0000044
 0,-0.00000270,0.00000048,-0.00000069,0.00000171,0.00000049,0.00000022,
 -0.00000381,0.00000175,0.00000213,-0.00000099,0.00000285,-0.00000130,0
 .00000010,-0.00000183,0.00000282,0.00000027,0.00000101,-0.00000101,0.0
 0000263,0.00000052,-0.00000080,-0.00000241,0.00000188,-0.00000313,-0.0
 0000066,-0.00000124,0.00000095,0.00000010,0.00000031,-0.00000022,-0.00
 000169,0.00000087,-0.00000113,0.00000220,0.00000300,0.00000802,-0.0000
 0155,0.00000134,0.00000039,0.00000167,0.00000035,-0.00001002,-0.000001
 04,-0.00000396,0.00000642,-0.00000183,0.00000215,0.00000276,-0.0000016
 7,0.00000139,-0.00000369,0.00000049,-0.00000027,-0.00000115,-0.0000006
 8,0.00000084,0.00000126,0.00000074,0.00000636,-0.00000381,0.00000776,-
 0.00000043,-0.00000213,-0.00000034,0.00000008,0.00000064,-0.00000393,-
 0.00000353,-0.00000023,0.00000142,0.00000246,-0.00000440,-0.00000181,-
 0.00000154,-0.00000177,-0.00000228,0.00000051,0.00000132,-0.00000017,0
 .00000070,-0.00000043,0.00000154,0.00000177,-0.00000218,-0.00000093,-0
 .00000076,0.00000007,-0.00000038,-0.00000091,0.00000098,0.00000167,0.0
 0000113,-0.00000186,-0.00000295,0.00000479,0.00001101,0.00000675,0.000
 00330,0.00000062,0.00000118,-0.00000121,-0.00000248,-0.00000596,0.0000
 0019,-0.00001073,0.00000129,-0.00001835,-0.00004608,-0.00006047,-0.002
 45455,-0.00289327,-0.00156353,-0.00007361,-0.00000192,0.00058483,-0.00
 918559,0.01674996,-0.00712699,0.00015444,0.00040276,0.00010455,-0.0000
 0273,-0.00005047,-0.00004346,0.00004076,-0.00001016,0.00004765,-0.0009
 0214,0.00121641,-0.00050648,-0.00014654,-0.00036098,-0.00003426,-0.000
 02649,0.00003415,-0.00006591,-0.00008572,0.00010520,-0.00003357,0.0000
 0479,0.00001857,0.00001067,-0.00003888,0.00002998,0.00001180,-0.000056
 55,-0.00013499,-0.00031238,0.00046312,-0.00023451,0.00073678,0.0007869
 2,0.00040633,0.00029173,-0.04298604,0.07022225,-0.07723932,0.00000484,
 0.00000897,0.00000065,-0.00002836,-0.00002502,0.00000293,0.00001660,0.
 00000607,0.00000004,0.00001765,-0.00000853,-0.00000257,-0.00002393,0.0
 0003035,0.00001900,-0.00000666,-0.00000821,0.00000628,0.00001693,0.000
 06437,0.00006688,0.00004298,0.00001191,0.00013410,-0.00002129,0.000046
 82,0.00008960,0.00001027,-0.00000584,0.00000113,0.00000589,-0.00000570
 ,-0.00000089,0.00001714,-0.00002055,-0.00001097,0.01251339,-0.02039773
 ,0.01051109,0.05093727,-0.07621144,0.07972457,0.00001009,0.00003157,0.
 00000959,-0.00004796,-0.00001762,0.00001747,0.00000845,0.00001155,0.00
 000211,-0.00000805,0.00000341,-0.00000190,0.00000438,0.00000112,0.0000
 0114,-0.00000483,0.00001117,0.00000434,0.00001065,0.00000853,0.0000026
 7,0.00000171,-0.00000615,0.00000076,0.00000066,0.00000941,-0.00000392,
 0.00000346,0.00000365,-0.00000528,-0.00000259,-0.00004053,0.00000426,0
 .00000045,0.00000092,0.00000073,-0.00000017,0.00000090,0.00000206,-0.0
 0000018,-0.00000557,0.00000469,0.00000022,0.00000123,0.00000162,-0.000
 00052,0.00000376,0.00000179,0.00001873,-0.00000837,-0.00002135,-0.0000
 0164,0.00000383,-0.00001494,0.00006159,0.00007604,0.00000281,0.0001435
 8,0.00014922,0.00007592,0.00002623,0.00003476,-0.00001724,0.00000700,0
 .00002214,-0.00002836,-0.00005567,-0.00005496,0.00004763,-0.00020151,-
 0.00022500,-0.00005063,-0.00002700,-0.00004002,0.00003889,0.00000780,0
 .00002956,-0.00001755,0.00010035,0.00011924,0.00006612,-0.00006807,-0.
 00001667,-0.00004250,-0.00034927,-0.00016165,-0.00006187,0.00000662,-0
 .00001043,0.00001006,-0.00000400,-0.00001582,-0.00000287,-0.00000078,-
 0.00000565,-0.00000006,-0.00001432,-0.00000698,0.00000749,0.00001993,0
 .00001414,-0.00002681,0.00057836,-0.00011589,0.00032455,0.00000648,0.0
 0011598,0.00004148,-0.00038209,0.00015867,-0.00039610,-0.00003092,-0.0
 0008405,-0.00003551,0.00006907,0.00003471,0.00012999,0.00000452,0.0000
 0166,-0.00001280,0.00000935,0.00000121,-0.00000890,-0.00003849,-0.0000
 0592,0.00004980,0.00002450,0.00001176,-0.00003294,0.00000774,-0.000011
 82,0.00002573,0.00000004,0.00000779,0.00000017,-0.00003234,0.00002729,
 -0.00000827,0.00002267,0.00001106,0.00000517,0.00000472,-0.00000939,0.
 00000600,-0.00000614,-0.00000172,0.00000627,-0.00000072,0.00000184,-0.
 00000351,-0.00000594,-0.00000257,-0.00000647,0.00000539,-0.00000190,0.
 00000075,-0.00000047,0.00000048,-0.00000271,0.00000108,0.00000337,0.00
 000214,0.00000166,0.00000110,-0.00000071,0.00000195,0.00000189,0.00000
 044,-0.00000037,0.00000011,0.00000064,-0.00000103,-0.00000019,-0.00000
 062,0.00000496,-0.00000822,-0.00000293,0.00000152,0.00000034,-0.000000
 53,-0.00000125,0.00000564,0.00000001,0.00000106,-0.00000506,-0.0000005
 4,0.00000461,0.00000125,-0.00000076,-0.00000158,0.00000120,-0.00000059
 ,0.00000073,-0.00000099,-0.00000125,0.00000088,0.00000104,0.00000182,0
 .00000063,0.00000414,-0.00000114,0.00000244,0.00000081,0.00000163,-0.0
 0000026,0.00000258,-0.00000773,-0.00000713,-0.00000315,0.00000467,0.00
 000099,0.00000425,0.00000101,0.00000037,0.00000131,0.00000247,0.000000
 58,0.00000083,-0.00000302,0.00000009,-0.00000076,-0.00000038,-0.000002
 17,0.00000116,-0.00000100,-0.00000087,0.00000014,-0.00000067,0.0000033
 8,0.00000282,-0.00000180,-0.00000024,-0.00000080,0.00000082,-0.0000038
 1,-0.00000298,-0.00000090,0.00000483,0.00000265,-0.00000027,-0.0000008
 0,0.00000115,-0.00000126,-0.00000083,-0.00000067,0.00000298,-0.0000410
 0,0.00011727,0.00002641,-0.00063781,-0.00362965,0.00063213,0.00145275,
 0.00197548,0.00015394,-0.01609563,-0.01421361,0.01158639,0.00009134,-0
 .00039058,-0.00002067,0.00000365,0.00012049,-0.00000108,-0.00006620,0.
 00019774,0.00006407,0.00056951,0.00056030,0.00014671,-0.00003282,0.000
 00982,-0.00003820,-0.00000180,-0.00000049,-0.00000283,0.00001613,0.000
 02224,-0.00000022,-0.00002039,0.00003264,-0.00003126,0.00000432,0.0000
 0770,0.00002899,-0.00001410,-0.00002819,0.00004498,-0.00288593,-0.0008
 1861,-0.00366513,0.00104760,0.00040704,0.00013360,-0.15614275,-0.10445
 332,0.08311855,-0.00005162,0.00000062,-0.00000372,0.00002078,0.0000076
 6,-0.00000260,0.00004201,-0.00001754,-0.00001012,-0.00002990,0.0000064
 1,0.00002702,0.00000195,0.00000188,-0.00000318,0.00002628,0.00000508,0
 .00000016,0.00000719,0.00001619,-0.00001179,-0.00000301,0.00000561,-0.
 00002021,0.00000866,0.00000106,-0.00001248,-0.00000423,0.00000122,-0.0
 0001368,-0.00000048,-0.00000086,-0.00000457,0.00000123,-0.00000649,-0.
 00000966,-0.00717500,-0.00700279,0.00465561,0.01212908,0.01057284,-0.0
 0895034,0.16788771,-0.00001837,0.00002810,0.00000202,-0.00002654,-0.00
 010181,0.00003591,0.00001773,0.00007238,0.00000147,-0.00002574,-0.0000
 4189,-0.00000291,0.00004640,0.00000256,-0.00000090,-0.00002767,0.00000
 770,0.00000281,0.00000725,0.00001299,0.00000156,0.00001364,-0.00000970
 ,0.00000240,-0.00000723,0.00000652,-0.00000317,0.00001911,0.00000408,-
 0.00000282,-0.00002094,-0.00000311,-0.00005786,-0.00000260,-0.00000079
 ,0.00000040,0.00000238,0.00000445,0.00000317,0.00000090,0.00000142,0.0
 0000517,0.00000099,0.00000148,0.00000163,-0.00000311,0.00000014,0.0000
 0391,0.00001277,0.00002741,-0.00001324,0.00001263,-0.00000272,-0.00001
 476,0.00000732,0.00004874,0.00003722,0.00014691,-0.00000835,0.00005321
 ,0.00002907,0.00000585,-0.00001897,0.00004055,-0.00002135,-0.00004493,
 -0.00005810,-0.00001496,0.00005069,-0.00021761,-0.00000553,-0.00001428
 ,-0.00007805,0.00002699,0.00000517,0.00002812,-0.00000678,-0.00000535,
 0.00010364,-0.00003508,-0.00002350,-0.00008052,0.00005222,0.00006154,0
 .00002125,-0.00022462,-0.00002019,0.00000720,-0.00000214,0.00000934,-0
 .00001261,0.00000691,0.00000295,-0.00000751,0.00000579,0.00000551,-0.0
 0002598,-0.00000951,0.00000542,0.00004891,-0.00001249,-0.00002979,-0.0
 0019666,0.00021527,0.00021646,0.00033964,-0.00008073,-0.00035895,-0.00
 005719,0.00027263,0.00045773,-0.00011473,-0.00015946,0.00004544,0.0000
 0388,0.00002073,0.00001491,0.00001741,-0.00001187,-0.00001215,0.000002
 17,-0.00000169,-0.00000256,-0.00000532,-0.00000086,0.00001991,0.000012
 27,-0.00000782,0.00002616,0.00000945,-0.00001111,0.00000094,0.00000231
 ,0.00000600,-0.00000381,-0.00001543,0.00000466,0.00001646,0.00003754,-
 0.00002664,-0.00000693,0.00000728,-0.00000783,0.00001548,-0.00000431,-
 0.00000182,-0.00000816,-0.00000167,0.00000470,-0.00000105,-0.00000240,
 -0.00000249,-0.00000470,0.00000176,0.00000180,0.00000064,0.00000107,-0
 .00000042,0.00000113,0.00000107,0.00000111,-0.00000075,0.00000270,-0.0
 0000187,-0.00000095,0.00000039,0.00000211,0.00000024,0.00000004,-0.000
 00009,-0.00000089,0.00000016,-0.00000115,0.00000169,0.00000915,-0.0000
 0107,-0.00000150,0.00000191,0.00000112,-0.00000021,-0.00000190,-0.0000
 0495,-0.00000091,-0.00000435,0.00000323,-0.00000279,0.00000627,0.00000
 265,-0.00000117,-0.00000059,-0.00000231,0.00000006,0.00000021,-0.00000
 130,-0.00000183,0.00000167,0.00000214,0.00000239,0.00000454,-0.0000031
 3,0.00000490,0.00000223,-0.00000146,0.00000110,-0.00000050,0.00000232,
 -0.00000623,-0.00000608,0.00000004,0.00000305,0.00000240,-0.00000188,-
 0.00000087,-0.00000127,-0.00000093,-0.00000067,0.00000058,0.00000181,-
 0.00000157,0.00000101,-0.00000079,0.00000111,0.00000024,-0.00000131,-0
 .00000073,-0.00000084,0.00000031,-0.00000049,0.00000121,0.00000209,0.0
 0000002,0.00000057,-0.00000218,-0.00000186,0.00000251,0.00000590,0.000
 00458,0.00000483,0.00000188,0.00000061,-0.00000086,-0.00000105,-0.0000
 0448,-0.00000115,-0.00000732,0.00000221,-0.00004708,-0.00000456,-0.000
 05180,0.00091162,-0.00078390,0.00012653,0.00123267,-0.00006377,0.00041
 721,-0.00637770,-0.00588343,0.00334694,0.00003568,-0.00001068,0.000021
 24,-0.00001084,-0.00000402,-0.00004957,-0.00003600,0.00008810,0.000018
 78,-0.00029591,-0.00000608,-0.00017565,0.00002790,-0.00012286,0.000045
 41,-0.00000603,0.00002528,-0.00002312,-0.00002876,0.00001322,-0.000005
 76,0.00001446,0.00003346,0.00002409,-0.00001866,0.00002409,0.00002615,
 -0.00011888,-0.00027337,-0.00013844,-0.00098147,0.00024051,-0.00142552
 ,0.00012823,0.00012443,0.00029961,-0.10590735,-0.14665848,0.08022467,-
 0.00001646,0.00000792,0.00000110,-0.00001361,-0.00001732,0.00000495,0.
 00002596,-0.00000251,-0.00000440,0.00001567,-0.00000708,-0.00001052,-0
 .00001735,0.00001658,0.00000147,-0.00000095,-0.00000870,-0.00000113,0.
 00004740,0.00015797,0.00004297,0.00004152,0.00004368,0.00004500,0.0000
 0228,0.00005753,0.00005422,0.00000289,-0.00000287,-0.00000867,0.000002
 62,-0.00000444,-0.00000349,0.00001056,-0.00001668,-0.00001276,0.011467
 88,0.01038543,-0.00820391,-0.01652560,-0.01352980,0.01106447,0.1164179
 0,0.15616043,-0.00000502,0.00001012,0.00000165,-0.00002574,-0.00004920
 ,0.00001394,0.00000926,0.00002493,-0.00000121,-0.00000823,-0.00000436,
 -0.00000177,0.00000793,0.00000478,-0.00000010,-0.00000696,0.00000807,0
 .00000122,0.00000562,0.00001127,-0.00000061,0.00000705,-0.00000749,0.0
 0000287,-0.00000394,0.00000868,-0.00000335,0.00000801,0.00000496,-0.00
 000121,0.00000361,-0.00003635,-0.00000373,0.00000123,0.00000317,0.0000
 0017,0.00000037,0.00000155,0.00000029,-0.00000076,-0.00000216,0.000003
 14,-0.00000008,0.00000050,0.,-0.00000079,0.00000089,0.00000006,0.00001
 272,0.00001220,0.00000159,0.00000205,0.00000648,-0.00001732,0.00005098
 ,0.00005657,0.00004667,0.00023729,0.00018984,0.00012861,0.00001343,0.0
 0002728,0.00001488,0.00003924,-0.00001060,-0.00002202,-0.00002282,-0.0
 0004954,0.00000687,-0.00030921,-0.00013940,-0.00006467,-0.00007083,0.0
 0001344,0.00000588,0.00003132,-0.00000310,0.00000572,0.00014259,0.0000
 2836,0.00004109,-0.00011855,0.00007090,0.00003588,-0.00042122,-0.00030
 507,-0.00042738,-0.00000342,-0.00000087,0.00000020,-0.00001739,0.00000
 278,-0.00000395,0.00000498,-0.00000994,-0.00001285,-0.00000689,-0.0000
 0540,-0.00000514,0.00000560,0.00001602,-0.00000354,0.00069692,0.000101
 15,0.00003887,0.00020713,-0.00010999,-0.00006668,-0.00045882,0.0004434
 6,-0.00071967,-0.00004762,-0.00007308,0.00014693,0.00010736,0.00004222
 ,0.00017161,0.00000832,0.00000192,-0.00001921,0.00000525,-0.00000737,-
 0.00000743,-0.00005422,-0.00000653,0.00006361,0.00003593,-0.00001075,-
 0.00000668,0.00001530,-0.00001934,0.00001949,-0.00000462,0.00000665,0.
 00000357,-0.00002561,0.00002904,0.00002711,0.00006014,-0.00002415,-0.0
 0000736,0.00001163,-0.00001318,0.00002270,-0.00000756,-0.00000113,-0.0
 0000525,-0.00000641,0.00000176,-0.00000071,-0.00000761,-0.00000314,-0.
 00000638,0.00000610,-0.00000146,-0.00000071,0.00000090,-0.00000055,-0.
 00000170,0.00000011,0.00000421,0.00000351,0.00000164,0.00000196,0.0000
 0050,0.00000121,0.00000124,-0.00000035,-0.00000095,0.00000121,0.000002
 42,-0.00000027,-0.00000105,-0.00000069,0.00000327,-0.00000945,-0.00000
 353,-0.00000023,0.00000011,0.00000262,0.00000077,0.00000409,-0.0000003
 2,0.00000309,-0.00000387,-0.00000209,0.00000456,0.00000212,-0.00000011
 ,-0.00000062,0.00000083,-0.00000136,-0.00000052,-0.00000135,0.00000050
 ,0.00000154,0.00000169,0.00000169,0.00000261,-0.00000132,0.00000116,0.
 00000545,-0.00000117,0.00000159,-0.00000236,0.00000345,-0.00000791,-0.
 00000836,0.00000006,0.00000560,0.00000152,0.00000070,0.00000087,-0.000
 00034,0.00000089,0.00000081,-0.00000069,0.00000105,-0.00000198,0.00000
 218,-0.00000127,0.00000048,0.00000072,0.00000025,-0.00000023,0.0000007
 1,-0.00000059,0.00000089,0.00000112,0.00000228,-0.00000093,-0.00000041
 ,-0.00000161,-0.00000139,0.00000102,0.00000121,0.00000105,0.00000323,0
 .00000193,-0.00000074,0.00000045,-0.00000092,-0.00000081,-0.00000146,-
 0.00000202,0.00000189,-0.00003309,0.00004586,-0.00000599,0.00013745,0.
 00038208,0.00082952,-0.00091054,0.00024452,-0.00075248,-0.01415598,-0.
 01381837,0.01127579,0.00002210,-0.00014315,-0.00010041,0.00001064,0.00
 003266,-0.00003005,-0.00005210,0.00008890,0.00007213,-0.00001116,-0.00
 023618,-0.00016320,0.00005941,-0.00000495,0.00001458,0.00000766,0.0000
 0572,0.00000486,0.00000043,-0.00000456,0.00000576,-0.00001299,0.000027
 47,0.00000258,-0.00002272,0.00000684,0.00000907,0.00004813,-0.00005451
 ,0.00004619,-0.00398606,-0.00104614,-0.00221819,0.00098671,-0.00007812
 ,0.00103365,0.08494295,0.08033425,-0.11033945,-0.00002499,0.00000383,0
 .00000641,-0.00000274,-0.00000551,0.00000264,0.00002881,-0.00000698,0.
 00000434,0.00000009,0.00000847,-0.00000384,-0.00000174,0.00000260,0.00
 000222,0.00000184,-0.00000530,-0.00000687,-0.00000659,0.00002985,-0.00
 000981,-0.00002415,0.00001225,-0.00003314,-0.00001456,0.00001141,-0.00
 000163,0.00000538,-0.00000068,-0.00000129,0.00000684,0.00000185,-0.000
 00191,0.00000830,-0.00000731,-0.00000564,0.01478482,0.01617291,-0.0112
 8013,0.00598380,0.00386073,-0.00532718,-0.08789886,-0.08609992,0.11757
 434\\0.00001475,0.00000942,0.00000012,-0.00000037,0.00000390,-0.000003
 00,0.00000087,-0.00000999,-0.00000127,0.00000533,0.00000542,-0.0000043
 4,0.00000028,-0.00000736,-0.00000383,-0.00001229,-0.00000505,-0.000002
 89,-0.00000336,-0.00000418,-0.00000285,0.00000549,0.00000208,-0.000004
 29,-0.00000136,-0.00000178,0.00000045,0.00001122,0.00000482,-0.0000016
 4,0.00000109,0.00000285,-0.00000207,0.00000221,0.00000139,-0.00000322,
 0.00000449,0.00000298,-0.00000223,0.00000090,-0.00000365,-0.00000165,0
 .00000198,-0.00000515,-0.00000297,0.00000356,-0.00000147,-0.00000293,-
 0.00000977,-0.00001195,-0.00000368,0.00000494,-0.00000627,-0.00000060,
 0.00001232,0.00000732,-0.00000332,-0.00000137,0.00000059,0.00000167,-0
 .00000129,0.00000393,0.00000501,-0.00001030,0.00001027,0.00000083,0.00
 000985,0.00000950,0.00000149,-0.00000658,0.00001015,-0.00000964,0.0000
 0150,-0.00000970,0.00000574,0.00000009,0.00000033,0.00000728,-0.000001
 48,-0.00000239,0.00000660,-0.00000435,-0.00000206,-0.00000419,0.000001
 96,0.00000115,0.00000138,0.00000134,-0.00000164,-0.00000449,0.00000056
 ,-0.00000960,0.00000527,0.00000339,0.00000487,-0.00000268,0.00000868,0
 .00000084,-0.00000728,-0.00000568,-0.00000038,0.00000181,-0.00001348,-
 0.00000938,0.00000685,-0.00000204,0.00000872,-0.00000266,0.00000768,-0
 .00000165,-0.00000268,0.00000168,0.00000402,0.00000001,0.00000303,0.00
 000555,0.00000360,-0.00000303,0.00000533,-0.00000017,-0.00000171,0.000
 00143,0.00000009,-0.00000052,0.00000350,0.00000341,0.00000105,-0.00000
 280,0.00001283,-0.00000749,-0.00000100,0.00000051,-0.00000156,0.000000
 24,0.00000085,-0.00000443,0.00000284,-0.00000498,-0.00000151,0.0000018
 2,0.00000021,-0.00000365,0.00000107,0.00000271,-0.00000333,0.00000465,
 0.00000280,-0.00000358,0.00000106,0.00000173,0.00000562,-0.00000122,0.
 00000545,-0.00000259,0.00000307,-0.00000464,-0.00000430,0.00000692,-0.
 00000087,-0.00000208,0.00000573,0.00000093,-0.00000048,-0.00000103,0.0
 0000139,0.00000261,0.00000255,-0.00000292,-0.00000002,0.00000325,-0.00
 000114,0.00000143,0.00000255,-0.00000133,0.00000077,0.00000627,-0.0000
 0320,-0.00000129,0.00000141,-0.00000136,0.00000197,0.00000481,-0.00000
 386,0.00000119,-0.00000178,0.00000089,-0.00000773,0.00000583,0.0000033
 8,0.00000192,0.00000268,-0.00000211,0.00000443,0.00000530,-0.00000669,
 0.00000290,0.00000488,-0.00000215,-0.00000801,0.00000316,-0.00000423,-
 0.00000111,-0.00000051,0.00000432,0.00000132,0.00000072,0.00000265,0.0
 0000464,-0.00000106,0.00000572,-0.00001066,0.00000324,0.00000462,-0.00
 000089,-0.00000242,0.00000031,0.00000228,0.00000292,-0.00000019,-0.000
 00094,-0.00000025,0.00000163,0.00000386,0.00000061,0.00000153,-0.00000
 106,-0.00000063,0.00000027,-0.00000027,0.00000213,0.00000114,0.0000003
 2,-0.00000102,-0.00000138,-0.00001229,-0.00000722,-0.00000079,-0.00000
 030,-0.00000127,0.00000187,0.00000098,-0.00000157,0.00000175,0.0000046
 4,-0.00000018,0.00000566,-0.00001086,-0.00000449,-0.00000345,-0.000016
 71,-0.00001980,0.00000648,0.00000837,0.00001495,0.00000176,-0.00001195
 ,-0.00000876,0.00000424,-0.00000084,-0.00000837,-0.00000113,0.00000337
 ,0.00000419,-0.00000174,0.00000280,-0.00000126,0.00000013,0.00000262,0
 .00000021,0.00001244,0.00000127,0.00000277,0.00001367,-0.00000128,-0.0
 0001277,-0.00000674,-0.00000629,-0.00000517,-0.00000618,0.00000216,-0.
 00000131,-0.00000401,0.00000356,0.00000052,0.00000047,-0.00000432,-0.0
 0000122,0.00000161,0.00000670,0.00000185,-0.00000518,0.00000347,-0.000
 00028,-0.00000296,0.00000651,-0.00000405,0.00000252,-0.00000172,-0.000
 00455,0.00000096,0.00000339,-0.00000337,0.00000031,0.00000227,-0.00000
 416,-0.00000194,0.00000156,-0.00000136,0.00000635,-0.00000250,-0.00000
 085,0.00000320,-0.00000074,-0.00000350,0.00000135,0.00000778,0.0000008
 3,-0.00000173,0.00000472,0.00000398,-0.00000589,0.00000298,0.00000222,
 -0.00000238,0.00000075,-0.00000491,0.00000277,0.00000102,-0.00000437,-
 0.00000268,0.00000067,-0.00000829,-0.00000639,-0.00000047,-0.00000125,
 0.00000204,-0.00000137,0.00000123,-0.00000161,0.00000062,-0.00000112,-
 0.00000065\\\@
 The archive entry for this job was punched.


    WHAT WE HAVE LEARNED
 IS LIKE A HANDFUL OF EARTH;
  WHAT WE HAVE YET TO LEARN
   IS LIKE THE WHOLE WORLD.

         -- AVVAYIAR
 Job cpu time:       2 days  5 hours 56 minutes 20.7 seconds.
 Elapsed time:       0 days  3 hours 26 minutes 13.7 seconds.
 File lengths (MBytes):  RWF=  11041 Int=      0 D2E=      0 Chk=     59 Scr=      1
 Normal termination of Gaussian 16 at Sat Dec  7 22:13:51 2024.
